n -t * -s 0  -x 179 -y 698 -Z 0 -z 20  -v circle -c green
n -t * -s 1  -x 311 -y 698 -Z 0 -z 20  -v circle -c green
n -t * -s 2  -x 314 -y 580 -Z 0 -z 20  -v circle -c green
n -t * -s 3  -x 179 -y 576 -Z 0 -z 20  -v circle -c green
n -t * -s 4  -x 177 -y 424 -Z 0 -z 20  -v circle -c green
n -t * -s 5  -x 339 -y 449 -Z 0 -z 20  -v circle -c green
n -t * -s 6  -x 458 -y 567 -Z 0 -z 20  -v circle -c green
n -t * -s 7  -x 491 -y 691 -Z 0 -z 20  -v circle -c green
n -t * -s 8  -x 548 -y 590 -Z 0 -z 20  -v circle -c green
n -t * -s 9  -x 526 -y 441 -Z 0 -z 20  -v circle -c green
n -t * -s 10  -x 324 -y 333 -Z 0 -z 20  -v circle -c green
n -t * -s 11  -x 671 -y 487 -Z 0 -z 20  -v circle -c green
n -t * -s 12  -x 708 -y 640 -Z 0 -z 20  -v circle -c green
n -t * -s 13  -x 683 -y 748 -Z 0 -z 20  -v circle -c green
n -t * -s 14  -x 688 -y 368 -Z 0 -z 20  -v circle -c green
n -t * -s 15  -x 516 -y 341 -Z 0 -z 20  -v circle -c green
n -t * -s 16  -x 876 -y 519 -Z 0 -z 20  -v circle -c green
V -t * -v 1.0a5 -a 0
W -t * -x 976 -y 848
A -t * -n 1 -p 0 -o 0x7fffffff -c 30 -a 1
A -t * -h 1 -m 1073741823 -s 0
n -t 1.000000 -s 6 -x 458.000000 -y 567.000000 -U 1.553926 -V -9.878528 -T 27.028318
+ -t 1.000000000 -s 3 -d -1 -p tcp -e 40 -c 2 -a 0 -i 0 -k AGT 
- -t 1.000000000 -s 3 -d -1 -p tcp -e 40 -c 2 -a 0 -i 0 -k AGT
h -t 1.000000000 -s 3 -d -1 -p tcp -e 40 -c 2 -a 0 -i 0 -k AGT
+ -t 1.000000000 -s 3 -d -1 -p AODV -e 48 -c 2 -a 0 -i 0 -k RTR 
- -t 1.000000000 -s 3 -d -1 -p AODV -e 48 -c 2 -a 0 -i 0 -k RTR
h -t 1.000000000 -s 3 -d -1 -p AODV -e 48 -c 2 -a 0 -i 0 -k RTR
+ -t 1.000635000 -s 3 -d -1 -p AODV -e 106 -c 2 -a 0 -i 0 -k MAC 
- -t 1.000635000 -s 3 -d -1 -p AODV -e 106 -c 2 -a 0 -i 0 -k MAC
h -t 1.000635000 -s 3 -d -1 -p AODV -e 106 -c 2 -a 0 -i 0 -k MAC
r -t 1.001483407 -s 0 -d -1 -p AODV -e 48 -c 2 -a 0 -i 0 -k MAC
r -t 1.001483450 -s 2 -d -1 -p AODV -e 48 -c 2 -a 0 -i 0 -k MAC
r -t 1.001483507 -s 4 -d -1 -p AODV -e 48 -c 2 -a 0 -i 0 -k MAC
r -t 1.001483599 -s 1 -d -1 -p AODV -e 48 -c 2 -a 0 -i 0 -k MAC
r -t 1.001483681 -s 5 -d -1 -p AODV -e 48 -c 2 -a 0 -i 0 -k MAC
r -t 1.001508407 -s 0 -d -1 -p AODV -e 48 -c 2 -a 0 -i 0 -k RTR
r -t 1.001508450 -s 2 -d -1 -p AODV -e 48 -c 2 -a 0 -i 0 -k RTR
r -t 1.001508507 -s 4 -d -1 -p AODV -e 48 -c 2 -a 0 -i 0 -k RTR
r -t 1.001508599 -s 1 -d -1 -p AODV -e 48 -c 2 -a 0 -i 0 -k RTR
r -t 1.001508681 -s 5 -d -1 -p AODV -e 48 -c 2 -a 0 -i 0 -k RTR
+ -t 1.003854698 -s 5 -d -1 -p AODV -e 48 -c 2 -a 0 -i 0 -k RTR 
- -t 1.003854698 -s 5 -d -1 -p AODV -e 48 -c 2 -a 0 -i 0 -k RTR
h -t 1.003854698 -s 5 -d -1 -p AODV -e 48 -c 2 -a 0 -i 0 -k RTR
+ -t 1.004289698 -s 5 -d -1 -p AODV -e 106 -c 2 -a 0 -i 0 -k MAC 
- -t 1.004289698 -s 5 -d -1 -p AODV -e 106 -c 2 -a 0 -i 0 -k MAC
h -t 1.004289698 -s 5 -d -1 -p AODV -e 106 -c 2 -a 0 -i 0 -k MAC
+ -t 1.004638124 -s 4 -d -1 -p AODV -e 48 -c 2 -a 0 -i 0 -k RTR 
- -t 1.004638124 -s 4 -d -1 -p AODV -e 48 -c 2 -a 0 -i 0 -k RTR
h -t 1.004638124 -s 4 -d -1 -p AODV -e 48 -c 2 -a 0 -i 0 -k RTR
r -t 1.005138088 -s 10 -d -1 -p AODV -e 48 -c 2 -a 0 -i 0 -k MAC
r -t 1.005138143 -s 2 -d -1 -p AODV -e 48 -c 2 -a 0 -i 0 -k MAC
r -t 1.005138245 -s 4 -d -1 -p AODV -e 48 -c 2 -a 0 -i 0 -k MAC
r -t 1.005138257 -s 6 -d -1 -p AODV -e 48 -c 2 -a 0 -i 0 -k MAC
r -t 1.005138322 -s 9 -d -1 -p AODV -e 48 -c 2 -a 0 -i 0 -k MAC
r -t 1.005138379 -s 3 -d -1 -p AODV -e 48 -c 2 -a 0 -i 0 -k MAC
r -t 1.005138390 -s 15 -d -1 -p AODV -e 48 -c 2 -a 0 -i 0 -k MAC
r -t 1.005163088 -s 10 -d -1 -p AODV -e 48 -c 2 -a 0 -i 0 -k RTR
r -t 1.005163143 -s 2 -d -1 -p AODV -e 48 -c 2 -a 0 -i 0 -k RTR
r -t 1.005163245 -s 4 -d -1 -p AODV -e 48 -c 2 -a 0 -i 0 -k RTR
r -t 1.005163257 -s 6 -d -1 -p AODV -e 48 -c 2 -a 0 -i 0 -k RTR
r -t 1.005163322 -s 9 -d -1 -p AODV -e 48 -c 2 -a 0 -i 0 -k RTR
r -t 1.005163379 -s 3 -d -1 -p AODV -e 48 -c 2 -a 0 -i 0 -k RTR
r -t 1.005163390 -s 15 -d -1 -p AODV -e 48 -c 2 -a 0 -i 0 -k RTR
+ -t 1.005448245 -s 4 -d -1 -p AODV -e 106 -c 2 -a 0 -i 0 -k MAC 
- -t 1.005448245 -s 4 -d -1 -p AODV -e 106 -c 2 -a 0 -i 0 -k MAC
h -t 1.005448245 -s 4 -d -1 -p AODV -e 106 -c 2 -a 0 -i 0 -k MAC
+ -t 1.005591203 -s 6 -d -1 -p AODV -e 48 -c 2 -a 0 -i 0 -k RTR 
- -t 1.005591203 -s 6 -d -1 -p AODV -e 48 -c 2 -a 0 -i 0 -k RTR
h -t 1.005591203 -s 6 -d -1 -p AODV -e 48 -c 2 -a 0 -i 0 -k RTR
+ -t 1.005920140 -s 0 -d -1 -p AODV -e 48 -c 2 -a 0 -i 0 -k RTR 
- -t 1.005920140 -s 0 -d -1 -p AODV -e 48 -c 2 -a 0 -i 0 -k RTR
h -t 1.005920140 -s 0 -d -1 -p AODV -e 48 -c 2 -a 0 -i 0 -k RTR
r -t 1.006296752 -s 3 -d -1 -p AODV -e 48 -c 2 -a 0 -i 0 -k MAC
r -t 1.006296791 -s 5 -d -1 -p AODV -e 48 -c 2 -a 0 -i 0 -k MAC
r -t 1.006296821 -s 10 -d -1 -p AODV -e 48 -c 2 -a 0 -i 0 -k MAC
r -t 1.006296937 -s 2 -d -1 -p AODV -e 48 -c 2 -a 0 -i 0 -k MAC
+ -t 1.006301472 -s 15 -d -1 -p AODV -e 48 -c 2 -a 0 -i 0 -k RTR 
- -t 1.006301472 -s 15 -d -1 -p AODV -e 48 -c 2 -a 0 -i 0 -k RTR
h -t 1.006301472 -s 15 -d -1 -p AODV -e 48 -c 2 -a 0 -i 0 -k RTR
r -t 1.006321752 -s 3 -d -1 -p AODV -e 48 -c 2 -a 0 -i 0 -k RTR
r -t 1.006321791 -s 5 -d -1 -p AODV -e 48 -c 2 -a 0 -i 0 -k RTR
r -t 1.006321821 -s 10 -d -1 -p AODV -e 48 -c 2 -a 0 -i 0 -k RTR
r -t 1.006321937 -s 2 -d -1 -p AODV -e 48 -c 2 -a 0 -i 0 -k RTR
+ -t 1.006804542 -s 10 -d -1 -p AODV -e 48 -c 2 -a 0 -i 0 -k RTR 
- -t 1.006804542 -s 10 -d -1 -p AODV -e 48 -c 2 -a 0 -i 0 -k RTR
h -t 1.006804542 -s 10 -d -1 -p AODV -e 48 -c 2 -a 0 -i 0 -k RTR
+ -t 1.006871158 -s 0 -d -1 -p AODV -e 106 -c 2 -a 0 -i 0 -k MAC 
- -t 1.006871158 -s 0 -d -1 -p AODV -e 106 -c 2 -a 0 -i 0 -k MAC
h -t 1.006871158 -s 0 -d -1 -p AODV -e 106 -c 2 -a 0 -i 0 -k MAC
r -t 1.007719565 -s 3 -d -1 -p AODV -e 48 -c 2 -a 0 -i 0 -k MAC
r -t 1.007719598 -s 1 -d -1 -p AODV -e 48 -c 2 -a 0 -i 0 -k MAC
r -t 1.007719756 -s 2 -d -1 -p AODV -e 48 -c 2 -a 0 -i 0 -k MAC
r -t 1.007744565 -s 3 -d -1 -p AODV -e 48 -c 2 -a 0 -i 0 -k RTR
r -t 1.007744598 -s 1 -d -1 -p AODV -e 48 -c 2 -a 0 -i 0 -k RTR
r -t 1.007744756 -s 2 -d -1 -p AODV -e 48 -c 2 -a 0 -i 0 -k RTR
+ -t 1.008214186 -s 6 -d -1 -p AODV -e 106 -c 2 -a 0 -i 0 -k MAC 
- -t 1.008214186 -s 6 -d -1 -p AODV -e 106 -c 2 -a 0 -i 0 -k MAC
h -t 1.008214186 -s 6 -d -1 -p AODV -e 106 -c 2 -a 0 -i 0 -k MAC
r -t 1.009062495 -s 8 -d -1 -p AODV -e 48 -c 2 -a 0 -i 0 -k MAC
r -t 1.009062614 -s 7 -d -1 -p AODV -e 48 -c 2 -a 0 -i 0 -k MAC
r -t 1.009062663 -s 9 -d -1 -p AODV -e 48 -c 2 -a 0 -i 0 -k MAC
r -t 1.009062668 -s 2 -d -1 -p AODV -e 48 -c 2 -a 0 -i 0 -k MAC
r -t 1.009062744 -s 5 -d -1 -p AODV -e 48 -c 2 -a 0 -i 0 -k MAC
r -t 1.009062842 -s 1 -d -1 -p AODV -e 48 -c 2 -a 0 -i 0 -k MAC
r -t 1.009062944 -s 11 -d -1 -p AODV -e 48 -c 2 -a 0 -i 0 -k MAC
r -t 1.009062963 -s 15 -d -1 -p AODV -e 48 -c 2 -a 0 -i 0 -k MAC
r -t 1.009087495 -s 8 -d -1 -p AODV -e 48 -c 2 -a 0 -i 0 -k RTR
r -t 1.009087614 -s 7 -d -1 -p AODV -e 48 -c 2 -a 0 -i 0 -k RTR
r -t 1.009087663 -s 9 -d -1 -p AODV -e 48 -c 2 -a 0 -i 0 -k RTR
r -t 1.009087668 -s 2 -d -1 -p AODV -e 48 -c 2 -a 0 -i 0 -k RTR
r -t 1.009087744 -s 5 -d -1 -p AODV -e 48 -c 2 -a 0 -i 0 -k RTR
r -t 1.009087842 -s 1 -d -1 -p AODV -e 48 -c 2 -a 0 -i 0 -k RTR
r -t 1.009087944 -s 11 -d -1 -p AODV -e 48 -c 2 -a 0 -i 0 -k RTR
r -t 1.009087963 -s 15 -d -1 -p AODV -e 48 -c 2 -a 0 -i 0 -k RTR
+ -t 1.009212963 -s 15 -d -1 -p AODV -e 106 -c 2 -a 0 -i 0 -k MAC 
- -t 1.009212963 -s 15 -d -1 -p AODV -e 106 -c 2 -a 0 -i 0 -k MAC
h -t 1.009212963 -s 15 -d -1 -p AODV -e 106 -c 2 -a 0 -i 0 -k MAC
+ -t 1.009500005 -s 2 -d -1 -p AODV -e 48 -c 2 -a 0 -i 0 -k RTR 
- -t 1.009500005 -s 2 -d -1 -p AODV -e 48 -c 2 -a 0 -i 0 -k RTR
h -t 1.009500005 -s 2 -d -1 -p AODV -e 48 -c 2 -a 0 -i 0 -k RTR
+ -t 1.009673360 -s 1 -d -1 -p AODV -e 48 -c 2 -a 0 -i 0 -k RTR 
- -t 1.009673360 -s 1 -d -1 -p AODV -e 48 -c 2 -a 0 -i 0 -k RTR
h -t 1.009673360 -s 1 -d -1 -p AODV -e 48 -c 2 -a 0 -i 0 -k RTR
r -t 1.010061298 -s 9 -d -1 -p AODV -e 48 -c 2 -a 0 -i 0 -k MAC
r -t 1.010061544 -s 14 -d -1 -p AODV -e 48 -c 2 -a 0 -i 0 -k MAC
r -t 1.010061604 -s 10 -d -1 -p AODV -e 48 -c 2 -a 0 -i 0 -k MAC
r -t 1.010061654 -s 5 -d -1 -p AODV -e 48 -c 2 -a 0 -i 0 -k MAC
r -t 1.010061673 -s 11 -d -1 -p AODV -e 48 -c 2 -a 0 -i 0 -k MAC
r -t 1.010061741 -s 6 -d -1 -p AODV -e 48 -c 2 -a 0 -i 0 -k MAC
r -t 1.010086298 -s 9 -d -1 -p AODV -e 48 -c 2 -a 0 -i 0 -k RTR
r -t 1.010086544 -s 14 -d -1 -p AODV -e 48 -c 2 -a 0 -i 0 -k RTR
r -t 1.010086604 -s 10 -d -1 -p AODV -e 48 -c 2 -a 0 -i 0 -k RTR
r -t 1.010086654 -s 5 -d -1 -p AODV -e 48 -c 2 -a 0 -i 0 -k RTR
r -t 1.010086673 -s 11 -d -1 -p AODV -e 48 -c 2 -a 0 -i 0 -k RTR
r -t 1.010086741 -s 6 -d -1 -p AODV -e 48 -c 2 -a 0 -i 0 -k RTR
+ -t 1.010351604 -s 10 -d -1 -p AODV -e 106 -c 2 -a 0 -i 0 -k MAC 
- -t 1.010351604 -s 10 -d -1 -p AODV -e 106 -c 2 -a 0 -i 0 -k MAC
h -t 1.010351604 -s 10 -d -1 -p AODV -e 106 -c 2 -a 0 -i 0 -k MAC
r -t 1.011199994 -s 5 -d -1 -p AODV -e 48 -c 2 -a 0 -i 0 -k MAC
r -t 1.011200180 -s 4 -d -1 -p AODV -e 48 -c 2 -a 0 -i 0 -k MAC
r -t 1.011200244 -s 15 -d -1 -p AODV -e 48 -c 2 -a 0 -i 0 -k MAC
r -t 1.011200367 -s 9 -d -1 -p AODV -e 48 -c 2 -a 0 -i 0 -k MAC
r -t 1.011200428 -s 2 -d -1 -p AODV -e 48 -c 2 -a 0 -i 0 -k MAC
r -t 1.011224994 -s 5 -d -1 -p AODV -e 48 -c 2 -a 0 -i 0 -k RTR
r -t 1.011225180 -s 4 -d -1 -p AODV -e 48 -c 2 -a 0 -i 0 -k RTR
r -t 1.011225244 -s 15 -d -1 -p AODV -e 48 -c 2 -a 0 -i 0 -k RTR
r -t 1.011225367 -s 9 -d -1 -p AODV -e 48 -c 2 -a 0 -i 0 -k RTR
r -t 1.011225428 -s 2 -d -1 -p AODV -e 48 -c 2 -a 0 -i 0 -k RTR
+ -t 1.011430428 -s 2 -d -1 -p AODV -e 106 -c 2 -a 0 -i 0 -k MAC 
- -t 1.011430428 -s 2 -d -1 -p AODV -e 106 -c 2 -a 0 -i 0 -k MAC
h -t 1.011430428 -s 2 -d -1 -p AODV -e 106 -c 2 -a 0 -i 0 -k MAC
+ -t 1.011563999 -s 9 -d -1 -p AODV -e 48 -c 2 -a 0 -i 0 -k RTR 
- -t 1.011563999 -s 9 -d -1 -p AODV -e 48 -c 2 -a 0 -i 0 -k RTR
h -t 1.011563999 -s 9 -d -1 -p AODV -e 48 -c 2 -a 0 -i 0 -k RTR
+ -t 1.012258138 -s 14 -d -1 -p AODV -e 48 -c 2 -a 0 -i 0 -k RTR 
- -t 1.012258138 -s 14 -d -1 -p AODV -e 48 -c 2 -a 0 -i 0 -k RTR
h -t 1.012258138 -s 14 -d -1 -p AODV -e 48 -c 2 -a 0 -i 0 -k RTR
r -t 1.012278821 -s 1 -d -1 -p AODV -e 48 -c 2 -a 0 -i 0 -k MAC
r -t 1.012278872 -s 5 -d -1 -p AODV -e 48 -c 2 -a 0 -i 0 -k MAC
r -t 1.012278878 -s 3 -d -1 -p AODV -e 48 -c 2 -a 0 -i 0 -k MAC
r -t 1.012278910 -s 6 -d -1 -p AODV -e 48 -c 2 -a 0 -i 0 -k MAC
r -t 1.012279025 -s 0 -d -1 -p AODV -e 48 -c 2 -a 0 -i 0 -k MAC
r -t 1.012279120 -s 4 -d -1 -p AODV -e 48 -c 2 -a 0 -i 0 -k MAC
r -t 1.012279124 -s 7 -d -1 -p AODV -e 48 -c 2 -a 0 -i 0 -k MAC
r -t 1.012279208 -s 8 -d -1 -p AODV -e 48 -c 2 -a 0 -i 0 -k MAC
r -t 1.012279252 -s 10 -d -1 -p AODV -e 48 -c 2 -a 0 -i 0 -k MAC
r -t 1.012303821 -s 1 -d -1 -p AODV -e 48 -c 2 -a 0 -i 0 -k RTR
r -t 1.012303872 -s 5 -d -1 -p AODV -e 48 -c 2 -a 0 -i 0 -k RTR
r -t 1.012303878 -s 3 -d -1 -p AODV -e 48 -c 2 -a 0 -i 0 -k RTR
r -t 1.012303910 -s 6 -d -1 -p AODV -e 48 -c 2 -a 0 -i 0 -k RTR
r -t 1.012304025 -s 0 -d -1 -p AODV -e 48 -c 2 -a 0 -i 0 -k RTR
r -t 1.012304120 -s 4 -d -1 -p AODV -e 48 -c 2 -a 0 -i 0 -k RTR
r -t 1.012304124 -s 7 -d -1 -p AODV -e 48 -c 2 -a 0 -i 0 -k RTR
r -t 1.012304208 -s 8 -d -1 -p AODV -e 48 -c 2 -a 0 -i 0 -k RTR
r -t 1.012304252 -s 10 -d -1 -p AODV -e 48 -c 2 -a 0 -i 0 -k RTR
+ -t 1.012733273 -s 9 -d -1 -p AODV -e 106 -c 2 -a 0 -i 0 -k MAC 
- -t 1.012733273 -s 9 -d -1 -p AODV -e 106 -c 2 -a 0 -i 0 -k MAC
h -t 1.012733273 -s 9 -d -1 -p AODV -e 106 -c 2 -a 0 -i 0 -k MAC
+ -t 1.013174352 -s 8 -d -1 -p AODV -e 48 -c 2 -a 0 -i 0 -k RTR 
- -t 1.013174352 -s 8 -d -1 -p AODV -e 48 -c 2 -a 0 -i 0 -k RTR
h -t 1.013174352 -s 8 -d -1 -p AODV -e 48 -c 2 -a 0 -i 0 -k RTR
r -t 1.013581608 -s 15 -d -1 -p AODV -e 48 -c 2 -a 0 -i 0 -k MAC
r -t 1.013581750 -s 6 -d -1 -p AODV -e 48 -c 2 -a 0 -i 0 -k MAC
r -t 1.013581775 -s 8 -d -1 -p AODV -e 48 -c 2 -a 0 -i 0 -k MAC
r -t 1.013581780 -s 11 -d -1 -p AODV -e 48 -c 2 -a 0 -i 0 -k MAC
r -t 1.013581865 -s 14 -d -1 -p AODV -e 48 -c 2 -a 0 -i 0 -k MAC
r -t 1.013581897 -s 5 -d -1 -p AODV -e 48 -c 2 -a 0 -i 0 -k MAC
r -t 1.013582036 -s 10 -d -1 -p AODV -e 48 -c 2 -a 0 -i 0 -k MAC
r -t 1.013606608 -s 15 -d -1 -p AODV -e 48 -c 2 -a 0 -i 0 -k RTR
r -t 1.013606750 -s 6 -d -1 -p AODV -e 48 -c 2 -a 0 -i 0 -k RTR
r -t 1.013606775 -s 8 -d -1 -p AODV -e 48 -c 2 -a 0 -i 0 -k RTR
r -t 1.013606780 -s 11 -d -1 -p AODV -e 48 -c 2 -a 0 -i 0 -k RTR
r -t 1.013606865 -s 14 -d -1 -p AODV -e 48 -c 2 -a 0 -i 0 -k RTR
r -t 1.013606897 -s 5 -d -1 -p AODV -e 48 -c 2 -a 0 -i 0 -k RTR
r -t 1.013607036 -s 10 -d -1 -p AODV -e 48 -c 2 -a 0 -i 0 -k RTR
+ -t 1.013749103 -s 11 -d -1 -p AODV -e 48 -c 2 -a 0 -i 0 -k RTR 
- -t 1.013749103 -s 11 -d -1 -p AODV -e 48 -c 2 -a 0 -i 0 -k RTR
h -t 1.013749103 -s 11 -d -1 -p AODV -e 48 -c 2 -a 0 -i 0 -k RTR
+ -t 1.013771775 -s 8 -d -1 -p AODV -e 106 -c 2 -a 0 -i 0 -k MAC 
- -t 1.013771775 -s 8 -d -1 -p AODV -e 106 -c 2 -a 0 -i 0 -k MAC
h -t 1.013771775 -s 8 -d -1 -p AODV -e 106 -c 2 -a 0 -i 0 -k MAC
+ -t 1.014274102 -s 7 -d -1 -p AODV -e 48 -c 2 -a 0 -i 0 -k RTR 
- -t 1.014274102 -s 7 -d -1 -p AODV -e 48 -c 2 -a 0 -i 0 -k RTR
h -t 1.014274102 -s 7 -d -1 -p AODV -e 48 -c 2 -a 0 -i 0 -k RTR
r -t 1.014620085 -s 6 -d -1 -p AODV -e 48 -c 2 -a 0 -i 0 -k MAC
r -t 1.014620161 -s 7 -d -1 -p AODV -e 48 -c 2 -a 0 -i 0 -k MAC
r -t 1.014620277 -s 9 -d -1 -p AODV -e 48 -c 2 -a 0 -i 0 -k MAC
r -t 1.014620310 -s 11 -d -1 -p AODV -e 48 -c 2 -a 0 -i 0 -k MAC
r -t 1.014620334 -s 12 -d -1 -p AODV -e 48 -c 2 -a 0 -i 0 -k MAC
r -t 1.014620468 -s 13 -d -1 -p AODV -e 48 -c 2 -a 0 -i 0 -k MAC
r -t 1.014620556 -s 2 -d -1 -p AODV -e 48 -c 2 -a 0 -i 0 -k MAC
r -t 1.014645085 -s 6 -d -1 -p AODV -e 48 -c 2 -a 0 -i 0 -k RTR
r -t 1.014645161 -s 7 -d -1 -p AODV -e 48 -c 2 -a 0 -i 0 -k RTR
r -t 1.014645277 -s 9 -d -1 -p AODV -e 48 -c 2 -a 0 -i 0 -k RTR
r -t 1.014645310 -s 11 -d -1 -p AODV -e 48 -c 2 -a 0 -i 0 -k RTR
r -t 1.014645334 -s 12 -d -1 -p AODV -e 48 -c 2 -a 0 -i 0 -k RTR
+ -t 1.014645334 -s 12 -d 8 -p AODV -e 44 -c 2 -a 0 -i 0 -k RTR 
- -t 1.014645334 -s 12 -d 8 -p AODV -e 44 -c 2 -a 0 -i 0 -k RTR
h -t 1.014645334 -s 12 -d 8 -p AODV -e 44 -c 2 -a 0 -i 0 -k RTR
r -t 1.014645468 -s 13 -d -1 -p AODV -e 48 -c 2 -a 0 -i 0 -k RTR
r -t 1.014645556 -s 2 -d -1 -p AODV -e 48 -c 2 -a 0 -i 0 -k RTR
+ -t 1.014870161 -s 7 -d -1 -p AODV -e 106 -c 2 -a 0 -i 0 -k MAC 
- -t 1.014870161 -s 7 -d -1 -p AODV -e 106 -c 2 -a 0 -i 0 -k MAC
h -t 1.014870161 -s 7 -d -1 -p AODV -e 106 -c 2 -a 0 -i 0 -k MAC
r -t 1.015718548 -s 8 -d -1 -p AODV -e 48 -c 2 -a 0 -i 0 -k MAC
r -t 1.015718590 -s 6 -d -1 -p AODV -e 48 -c 2 -a 0 -i 0 -k MAC
r -t 1.015718762 -s 1 -d -1 -p AODV -e 48 -c 2 -a 0 -i 0 -k MAC
r -t 1.015718829 -s 13 -d -1 -p AODV -e 48 -c 2 -a 0 -i 0 -k MAC
r -t 1.015718858 -s 2 -d -1 -p AODV -e 48 -c 2 -a 0 -i 0 -k MAC
r -t 1.015718904 -s 12 -d -1 -p AODV -e 48 -c 2 -a 0 -i 0 -k MAC
r -t 1.015743548 -s 8 -d -1 -p AODV -e 48 -c 2 -a 0 -i 0 -k RTR
r -t 1.015743590 -s 6 -d -1 -p AODV -e 48 -c 2 -a 0 -i 0 -k RTR
r -t 1.015743762 -s 1 -d -1 -p AODV -e 48 -c 2 -a 0 -i 0 -k RTR
r -t 1.015743829 -s 13 -d -1 -p AODV -e 48 -c 2 -a 0 -i 0 -k RTR
r -t 1.015743858 -s 2 -d -1 -p AODV -e 48 -c 2 -a 0 -i 0 -k RTR
r -t 1.015743904 -s 12 -d -1 -p AODV -e 48 -c 2 -a 0 -i 0 -k RTR
+ -t 1.015828904 -s 12 -d -1 -p ARP -e 86 -c 2 -a 0 -i 0 -k MAC 
- -t 1.015828904 -s 12 -d -1 -p ARP -e 86 -c 2 -a 0 -i 0 -k MAC
h -t 1.015828904 -s 12 -d -1 -p ARP -e 86 -c 2 -a 0 -i 0 -k MAC
r -t 1.016517274 -s 13 -d -1 -p ARP -e 28 -c 2 -a 0 -i 0 -k MAC
r -t 1.016517429 -s 11 -d -1 -p ARP -e 28 -c 2 -a 0 -i 0 -k MAC
r -t 1.016517463 -s 8 -d -1 -p ARP -e 28 -c 2 -a 0 -i 0 -k MAC
r -t 1.016517595 -s 16 -d -1 -p ARP -e 28 -c 2 -a 0 -i 0 -k MAC
r -t 1.016517648 -s 7 -d -1 -p ARP -e 28 -c 2 -a 0 -i 0 -k MAC
+ -t 1.016632463 -s 8 -d -1 -p RTS -e 44 -c 2 -a 0 -i 0 -k MAC 
- -t 1.016632463 -s 8 -d -1 -p RTS -e 44 -c 2 -a 0 -i 0 -k MAC
h -t 1.016632463 -s 8 -d -1 -p RTS -e 44 -c 2 -a 0 -i 0 -k MAC
r -t 1.016985022 -s 12 -d -1 -p RTS -e 44 -c 2 -a 0 -i 0 -k MAC
+ -t 1.016995022 -s 12 -d -1 -p CTS -e 38 -c 2 -a 0 -i 0 -k MAC 
- -t 1.016995022 -s 12 -d -1 -p CTS -e 38 -c 2 -a 0 -i 0 -k MAC
h -t 1.016995022 -s 12 -d -1 -p CTS -e 38 -c 2 -a 0 -i 0 -k MAC
r -t 1.017299581 -s 8 -d -1 -p CTS -e 38 -c 2 -a 0 -i 0 -k MAC
+ -t 1.017309581 -s 8 -d -1 -p ARP -e 86 -c 2 -a 0 -i 0 -k MAC 
- -t 1.017309581 -s 8 -d -1 -p ARP -e 86 -c 2 -a 0 -i 0 -k MAC
h -t 1.017309581 -s 8 -d -1 -p ARP -e 86 -c 2 -a 0 -i 0 -k MAC
r -t 1.017998140 -s 12 -d -1 -p ARP -e 28 -c 2 -a 0 -i 0 -k MAC
+ -t 1.018008140 -s 12 -d -1 -p ACK -e 38 -c 2 -a 0 -i 0 -k MAC 
- -t 1.018008140 -s 12 -d -1 -p ACK -e 38 -c 2 -a 0 -i 0 -k MAC
h -t 1.018008140 -s 12 -d -1 -p ACK -e 38 -c 2 -a 0 -i 0 -k MAC
r -t 1.018312698 -s 8 -d -1 -p ACK -e 38 -c 2 -a 0 -i 0 -k MAC
+ -t 1.018382664 -s 11 -d -1 -p AODV -e 106 -c 2 -a 0 -i 0 -k MAC 
- -t 1.018382664 -s 11 -d -1 -p AODV -e 106 -c 2 -a 0 -i 0 -k MAC
h -t 1.018382664 -s 11 -d -1 -p AODV -e 106 -c 2 -a 0 -i 0 -k MAC
r -t 1.019231065 -s 14 -d -1 -p AODV -e 48 -c 2 -a 0 -i 0 -k MAC
r -t 1.019231171 -s 9 -d -1 -p AODV -e 48 -c 2 -a 0 -i 0 -k MAC
r -t 1.019231189 -s 12 -d -1 -p AODV -e 48 -c 2 -a 0 -i 0 -k MAC
r -t 1.019231199 -s 8 -d -1 -p AODV -e 48 -c 2 -a 0 -i 0 -k MAC
r -t 1.019231356 -s 16 -d -1 -p AODV -e 48 -c 2 -a 0 -i 0 -k MAC
r -t 1.019231374 -s 15 -d -1 -p AODV -e 48 -c 2 -a 0 -i 0 -k MAC
r -t 1.019231422 -s 6 -d -1 -p AODV -e 48 -c 2 -a 0 -i 0 -k MAC
r -t 1.019256065 -s 14 -d -1 -p AODV -e 48 -c 2 -a 0 -i 0 -k RTR
r -t 1.019256171 -s 9 -d -1 -p AODV -e 48 -c 2 -a 0 -i 0 -k RTR
r -t 1.019256189 -s 12 -d -1 -p AODV -e 48 -c 2 -a 0 -i 0 -k RTR
r -t 1.019256199 -s 8 -d -1 -p AODV -e 48 -c 2 -a 0 -i 0 -k RTR
r -t 1.019256356 -s 16 -d -1 -p AODV -e 48 -c 2 -a 0 -i 0 -k RTR
r -t 1.019256374 -s 15 -d -1 -p AODV -e 48 -c 2 -a 0 -i 0 -k RTR
r -t 1.019256422 -s 6 -d -1 -p AODV -e 48 -c 2 -a 0 -i 0 -k RTR
+ -t 1.019461065 -s 14 -d -1 -p AODV -e 106 -c 2 -a 0 -i 0 -k MAC 
- -t 1.019461065 -s 14 -d -1 -p AODV -e 106 -c 2 -a 0 -i 0 -k MAC
h -t 1.019461065 -s 14 -d -1 -p AODV -e 106 -c 2 -a 0 -i 0 -k MAC
r -t 1.020309466 -s 11 -d -1 -p AODV -e 48 -c 2 -a 0 -i 0 -k MAC
r -t 1.020309645 -s 15 -d -1 -p AODV -e 48 -c 2 -a 0 -i 0 -k MAC
r -t 1.020309657 -s 9 -d -1 -p AODV -e 48 -c 2 -a 0 -i 0 -k MAC
r -t 1.020309869 -s 16 -d -1 -p AODV -e 48 -c 2 -a 0 -i 0 -k MAC
r -t 1.020334466 -s 11 -d -1 -p AODV -e 48 -c 2 -a 0 -i 0 -k RTR
r -t 1.020334645 -s 15 -d -1 -p AODV -e 48 -c 2 -a 0 -i 0 -k RTR
r -t 1.020334657 -s 9 -d -1 -p AODV -e 48 -c 2 -a 0 -i 0 -k RTR
r -t 1.020334869 -s 16 -d -1 -p AODV -e 48 -c 2 -a 0 -i 0 -k RTR
+ -t 1.020844735 -s 1 -d -1 -p AODV -e 106 -c 2 -a 0 -i 0 -k MAC 
- -t 1.020844735 -s 1 -d -1 -p AODV -e 106 -c 2 -a 0 -i 0 -k MAC
h -t 1.020844735 -s 1 -d -1 -p AODV -e 106 -c 2 -a 0 -i 0 -k MAC
r -t 1.021693128 -s 2 -d -1 -p AODV -e 48 -c 2 -a 0 -i 0 -k MAC
r -t 1.021693175 -s 0 -d -1 -p AODV -e 48 -c 2 -a 0 -i 0 -k MAC
r -t 1.021693334 -s 3 -d -1 -p AODV -e 48 -c 2 -a 0 -i 0 -k MAC
r -t 1.021693335 -s 7 -d -1 -p AODV -e 48 -c 2 -a 0 -i 0 -k MAC
r -t 1.021693392 -s 6 -d -1 -p AODV -e 48 -c 2 -a 0 -i 0 -k MAC
r -t 1.021718128 -s 2 -d -1 -p AODV -e 48 -c 2 -a 0 -i 0 -k RTR
r -t 1.021718175 -s 0 -d -1 -p AODV -e 48 -c 2 -a 0 -i 0 -k RTR
r -t 1.021718334 -s 3 -d -1 -p AODV -e 48 -c 2 -a 0 -i 0 -k RTR
r -t 1.021718335 -s 7 -d -1 -p AODV -e 48 -c 2 -a 0 -i 0 -k RTR
r -t 1.021718392 -s 6 -d -1 -p AODV -e 48 -c 2 -a 0 -i 0 -k RTR
+ -t 1.022308072 -s 12 -d -1 -p RTS -e 44 -c 2 -a 0 -i 0 -k MAC 
- -t 1.022308072 -s 12 -d -1 -p RTS -e 44 -c 2 -a 0 -i 0 -k MAC
h -t 1.022308072 -s 12 -d -1 -p RTS -e 44 -c 2 -a 0 -i 0 -k MAC
+ -t 1.022612983 -s 16 -d -1 -p AODV -e 48 -c 2 -a 0 -i 0 -k RTR 
- -t 1.022612983 -s 16 -d -1 -p AODV -e 48 -c 2 -a 0 -i 0 -k RTR
h -t 1.022612983 -s 16 -d -1 -p AODV -e 48 -c 2 -a 0 -i 0 -k RTR
r -t 1.022660631 -s 8 -d -1 -p RTS -e 44 -c 2 -a 0 -i 0 -k MAC
+ -t 1.022670631 -s 8 -d -1 -p CTS -e 38 -c 2 -a 0 -i 0 -k MAC 
- -t 1.022670631 -s 8 -d -1 -p CTS -e 38 -c 2 -a 0 -i 0 -k MAC
h -t 1.022670631 -s 8 -d -1 -p CTS -e 38 -c 2 -a 0 -i 0 -k MAC
r -t 1.022975190 -s 12 -d -1 -p CTS -e 38 -c 2 -a 0 -i 0 -k MAC
+ -t 1.022985190 -s 12 -d 8 -p AODV -e 102 -c 2 -a 0 -i 0 -k MAC 
- -t 1.022985190 -s 12 -d 8 -p AODV -e 102 -c 2 -a 0 -i 0 -k MAC
h -t 1.022985190 -s 12 -d 8 -p AODV -e 102 -c 2 -a 0 -i 0 -k MAC
+ -t 1.023519903 -s 13 -d -1 -p AODV -e 48 -c 2 -a 0 -i 0 -k RTR 
- -t 1.023519903 -s 13 -d -1 -p AODV -e 48 -c 2 -a 0 -i 0 -k RTR
h -t 1.023519903 -s 13 -d -1 -p AODV -e 48 -c 2 -a 0 -i 0 -k RTR
r -t 1.023801749 -s 8 -d 8 -p AODV -e 44 -c 2 -a 0 -i 0 -k MAC
+ -t 1.023811749 -s 8 -d -1 -p ACK -e 38 -c 2 -a 0 -i 0 -k MAC 
- -t 1.023811749 -s 8 -d -1 -p ACK -e 38 -c 2 -a 0 -i 0 -k MAC
h -t 1.023811749 -s 8 -d -1 -p ACK -e 38 -c 2 -a 0 -i 0 -k MAC
+ -t 1.023826749 -s 8 -d 6 -p AODV -e 44 -c 2 -a 0 -i 0 -k RTR 
- -t 1.023826749 -s 8 -d 6 -p AODV -e 44 -c 2 -a 0 -i 0 -k RTR
h -t 1.023826749 -s 8 -d 6 -p AODV -e 44 -c 2 -a 0 -i 0 -k RTR
r -t 1.024116307 -s 12 -d -1 -p ACK -e 38 -c 2 -a 0 -i 0 -k MAC
+ -t 1.024165749 -s 8 -d -1 -p ARP -e 86 -c 2 -a 0 -i 0 -k MAC 
- -t 1.024165749 -s 8 -d -1 -p ARP -e 86 -c 2 -a 0 -i 0 -k MAC
h -t 1.024165749 -s 8 -d -1 -p ARP -e 86 -c 2 -a 0 -i 0 -k MAC
r -t 1.024854058 -s 6 -d -1 -p ARP -e 28 -c 2 -a 0 -i 0 -k MAC
r -t 1.024854135 -s 7 -d -1 -p ARP -e 28 -c 2 -a 0 -i 0 -k MAC
r -t 1.024854251 -s 9 -d -1 -p ARP -e 28 -c 2 -a 0 -i 0 -k MAC
r -t 1.024854283 -s 11 -d -1 -p ARP -e 28 -c 2 -a 0 -i 0 -k MAC
r -t 1.024854307 -s 12 -d -1 -p ARP -e 28 -c 2 -a 0 -i 0 -k MAC
r -t 1.024854441 -s 13 -d -1 -p ARP -e 28 -c 2 -a 0 -i 0 -k MAC
r -t 1.024854529 -s 2 -d -1 -p ARP -e 28 -c 2 -a 0 -i 0 -k MAC
+ -t 1.025069058 -s 6 -d -1 -p RTS -e 44 -c 2 -a 0 -i 0 -k MAC 
- -t 1.025069058 -s 6 -d -1 -p RTS -e 44 -c 2 -a 0 -i 0 -k MAC
h -t 1.025069058 -s 6 -d -1 -p RTS -e 44 -c 2 -a 0 -i 0 -k MAC
r -t 1.025421368 -s 8 -d -1 -p RTS -e 44 -c 2 -a 0 -i 0 -k MAC
+ -t 1.025431368 -s 8 -d -1 -p CTS -e 38 -c 2 -a 0 -i 0 -k MAC 
- -t 1.025431368 -s 8 -d -1 -p CTS -e 38 -c 2 -a 0 -i 0 -k MAC
h -t 1.025431368 -s 8 -d -1 -p CTS -e 38 -c 2 -a 0 -i 0 -k MAC
r -t 1.025735678 -s 6 -d -1 -p CTS -e 38 -c 2 -a 0 -i 0 -k MAC
+ -t 1.025745678 -s 6 -d -1 -p ARP -e 86 -c 2 -a 0 -i 0 -k MAC 
- -t 1.025745678 -s 6 -d -1 -p ARP -e 86 -c 2 -a 0 -i 0 -k MAC
h -t 1.025745678 -s 6 -d -1 -p ARP -e 86 -c 2 -a 0 -i 0 -k MAC
r -t 1.026433988 -s 8 -d -1 -p ARP -e 28 -c 2 -a 0 -i 0 -k MAC
+ -t 1.026443988 -s 8 -d -1 -p ACK -e 38 -c 2 -a 0 -i 0 -k MAC 
- -t 1.026443988 -s 8 -d -1 -p ACK -e 38 -c 2 -a 0 -i 0 -k MAC
h -t 1.026443988 -s 8 -d -1 -p ACK -e 38 -c 2 -a 0 -i 0 -k MAC
r -t 1.026748297 -s 6 -d -1 -p ACK -e 38 -c 2 -a 0 -i 0 -k MAC
+ -t 1.026957988 -s 8 -d -1 -p RTS -e 44 -c 2 -a 0 -i 0 -k MAC 
- -t 1.026957988 -s 8 -d -1 -p RTS -e 44 -c 2 -a 0 -i 0 -k MAC
h -t 1.026957988 -s 8 -d -1 -p RTS -e 44 -c 2 -a 0 -i 0 -k MAC
r -t 1.027310297 -s 6 -d -1 -p RTS -e 44 -c 2 -a 0 -i 0 -k MAC
+ -t 1.027320297 -s 6 -d -1 -p CTS -e 38 -c 2 -a 0 -i 0 -k MAC 
- -t 1.027320297 -s 6 -d -1 -p CTS -e 38 -c 2 -a 0 -i 0 -k MAC
h -t 1.027320297 -s 6 -d -1 -p CTS -e 38 -c 2 -a 0 -i 0 -k MAC
r -t 1.027624607 -s 8 -d -1 -p CTS -e 38 -c 2 -a 0 -i 0 -k MAC
+ -t 1.027634607 -s 8 -d 6 -p AODV -e 102 -c 2 -a 0 -i 0 -k MAC 
- -t 1.027634607 -s 8 -d 6 -p AODV -e 102 -c 2 -a 0 -i 0 -k MAC
h -t 1.027634607 -s 8 -d 6 -p AODV -e 102 -c 2 -a 0 -i 0 -k MAC
r -t 1.028450917 -s 6 -d 6 -p AODV -e 44 -c 2 -a 0 -i 0 -k MAC
+ -t 1.028460917 -s 6 -d -1 -p ACK -e 38 -c 2 -a 0 -i 0 -k MAC 
- -t 1.028460917 -s 6 -d -1 -p ACK -e 38 -c 2 -a 0 -i 0 -k MAC
h -t 1.028460917 -s 6 -d -1 -p ACK -e 38 -c 2 -a 0 -i 0 -k MAC
+ -t 1.028475917 -s 6 -d 5 -p AODV -e 44 -c 2 -a 0 -i 0 -k RTR 
- -t 1.028475917 -s 6 -d 5 -p AODV -e 44 -c 2 -a 0 -i 0 -k RTR
h -t 1.028475917 -s 6 -d 5 -p AODV -e 44 -c 2 -a 0 -i 0 -k RTR
r -t 1.028765227 -s 8 -d -1 -p ACK -e 38 -c 2 -a 0 -i 0 -k MAC
+ -t 1.028874917 -s 6 -d -1 -p ARP -e 86 -c 2 -a 0 -i 0 -k MAC 
- -t 1.028874917 -s 6 -d -1 -p ARP -e 86 -c 2 -a 0 -i 0 -k MAC
h -t 1.028874917 -s 6 -d -1 -p ARP -e 86 -c 2 -a 0 -i 0 -k MAC
r -t 1.029563227 -s 8 -d -1 -p ARP -e 28 -c 2 -a 0 -i 0 -k MAC
r -t 1.029563345 -s 7 -d -1 -p ARP -e 28 -c 2 -a 0 -i 0 -k MAC
r -t 1.029563393 -s 9 -d -1 -p ARP -e 28 -c 2 -a 0 -i 0 -k MAC
r -t 1.029563399 -s 2 -d -1 -p ARP -e 28 -c 2 -a 0 -i 0 -k MAC
r -t 1.029563475 -s 5 -d -1 -p ARP -e 28 -c 2 -a 0 -i 0 -k MAC
r -t 1.029563574 -s 1 -d -1 -p ARP -e 28 -c 2 -a 0 -i 0 -k MAC
r -t 1.029563675 -s 11 -d -1 -p ARP -e 28 -c 2 -a 0 -i 0 -k MAC
r -t 1.029563694 -s 15 -d -1 -p ARP -e 28 -c 2 -a 0 -i 0 -k MAC
+ -t 1.029618475 -s 5 -d -1 -p RTS -e 44 -c 2 -a 0 -i 0 -k MAC 
- -t 1.029618475 -s 5 -d -1 -p RTS -e 44 -c 2 -a 0 -i 0 -k MAC
h -t 1.029618475 -s 5 -d -1 -p RTS -e 44 -c 2 -a 0 -i 0 -k MAC
r -t 1.029971033 -s 6 -d -1 -p RTS -e 44 -c 2 -a 0 -i 0 -k MAC
+ -t 1.029981033 -s 6 -d -1 -p CTS -e 38 -c 2 -a 0 -i 0 -k MAC 
- -t 1.029981033 -s 6 -d -1 -p CTS -e 38 -c 2 -a 0 -i 0 -k MAC
h -t 1.029981033 -s 6 -d -1 -p CTS -e 38 -c 2 -a 0 -i 0 -k MAC
r -t 1.030285591 -s 5 -d -1 -p CTS -e 38 -c 2 -a 0 -i 0 -k MAC
+ -t 1.030295591 -s 5 -d -1 -p ARP -e 86 -c 2 -a 0 -i 0 -k MAC 
- -t 1.030295591 -s 5 -d -1 -p ARP -e 86 -c 2 -a 0 -i 0 -k MAC
h -t 1.030295591 -s 5 -d -1 -p ARP -e 86 -c 2 -a 0 -i 0 -k MAC
r -t 1.030984149 -s 6 -d -1 -p ARP -e 28 -c 2 -a 0 -i 0 -k MAC
+ -t 1.030994149 -s 6 -d -1 -p ACK -e 38 -c 2 -a 0 -i 0 -k MAC 
- -t 1.030994149 -s 6 -d -1 -p ACK -e 38 -c 2 -a 0 -i 0 -k MAC
h -t 1.030994149 -s 6 -d -1 -p ACK -e 38 -c 2 -a 0 -i 0 -k MAC
r -t 1.031298707 -s 5 -d -1 -p ACK -e 38 -c 2 -a 0 -i 0 -k MAC
+ -t 1.031648149 -s 6 -d -1 -p RTS -e 44 -c 2 -a 0 -i 0 -k MAC 
- -t 1.031648149 -s 6 -d -1 -p RTS -e 44 -c 2 -a 0 -i 0 -k MAC
h -t 1.031648149 -s 6 -d -1 -p RTS -e 44 -c 2 -a 0 -i 0 -k MAC
r -t 1.032000707 -s 5 -d -1 -p RTS -e 44 -c 2 -a 0 -i 0 -k MAC
+ -t 1.032010707 -s 5 -d -1 -p CTS -e 38 -c 2 -a 0 -i 0 -k MAC 
- -t 1.032010707 -s 5 -d -1 -p CTS -e 38 -c 2 -a 0 -i 0 -k MAC
h -t 1.032010707 -s 5 -d -1 -p CTS -e 38 -c 2 -a 0 -i 0 -k MAC
r -t 1.032315265 -s 6 -d -1 -p CTS -e 38 -c 2 -a 0 -i 0 -k MAC
+ -t 1.032325265 -s 6 -d 5 -p AODV -e 102 -c 2 -a 0 -i 0 -k MAC 
- -t 1.032325265 -s 6 -d 5 -p AODV -e 102 -c 2 -a 0 -i 0 -k MAC
h -t 1.032325265 -s 6 -d 5 -p AODV -e 102 -c 2 -a 0 -i 0 -k MAC
r -t 1.033141823 -s 5 -d 5 -p AODV -e 44 -c 2 -a 0 -i 0 -k MAC
+ -t 1.033151823 -s 5 -d -1 -p ACK -e 38 -c 2 -a 0 -i 0 -k MAC 
- -t 1.033151823 -s 5 -d -1 -p ACK -e 38 -c 2 -a 0 -i 0 -k MAC
h -t 1.033151823 -s 5 -d -1 -p ACK -e 38 -c 2 -a 0 -i 0 -k MAC
+ -t 1.033166823 -s 5 -d 3 -p AODV -e 44 -c 2 -a 0 -i 0 -k RTR 
- -t 1.033166823 -s 5 -d 3 -p AODV -e 44 -c 2 -a 0 -i 0 -k RTR
h -t 1.033166823 -s 5 -d 3 -p AODV -e 44 -c 2 -a 0 -i 0 -k RTR
r -t 1.033456381 -s 6 -d -1 -p ACK -e 38 -c 2 -a 0 -i 0 -k MAC
+ -t 1.033805823 -s 5 -d -1 -p ARP -e 86 -c 2 -a 0 -i 0 -k MAC 
- -t 1.033805823 -s 5 -d -1 -p ARP -e 86 -c 2 -a 0 -i 0 -k MAC
h -t 1.033805823 -s 5 -d -1 -p ARP -e 86 -c 2 -a 0 -i 0 -k MAC
r -t 1.034494213 -s 10 -d -1 -p ARP -e 28 -c 2 -a 0 -i 0 -k MAC
r -t 1.034494267 -s 2 -d -1 -p ARP -e 28 -c 2 -a 0 -i 0 -k MAC
r -t 1.034494369 -s 4 -d -1 -p ARP -e 28 -c 2 -a 0 -i 0 -k MAC
r -t 1.034494381 -s 6 -d -1 -p ARP -e 28 -c 2 -a 0 -i 0 -k MAC
r -t 1.034494447 -s 9 -d -1 -p ARP -e 28 -c 2 -a 0 -i 0 -k MAC
r -t 1.034494504 -s 3 -d -1 -p ARP -e 28 -c 2 -a 0 -i 0 -k MAC
r -t 1.034494514 -s 15 -d -1 -p ARP -e 28 -c 2 -a 0 -i 0 -k MAC
+ -t 1.035029504 -s 3 -d -1 -p RTS -e 44 -c 2 -a 0 -i 0 -k MAC 
- -t 1.035029504 -s 3 -d -1 -p RTS -e 44 -c 2 -a 0 -i 0 -k MAC
h -t 1.035029504 -s 3 -d -1 -p RTS -e 44 -c 2 -a 0 -i 0 -k MAC
+ -t 1.035189628 -s 16 -d -1 -p AODV -e 106 -c 2 -a 0 -i 0 -k MAC 
- -t 1.035189628 -s 16 -d -1 -p AODV -e 106 -c 2 -a 0 -i 0 -k MAC
h -t 1.035189628 -s 16 -d -1 -p AODV -e 106 -c 2 -a 0 -i 0 -k MAC
r -t 1.035382185 -s 5 -d -1 -p RTS -e 44 -c 2 -a 0 -i 0 -k MAC
d -t 1.036038318 -s 12 -d -1 -p AODV -e 106 -c 2 -a 0 -i 0 -k MAC
d -t 1.036038320 -s 11 -d -1 -p AODV -e 106 -c 2 -a 0 -i 0 -k MAC
d -t 1.036038432 -s 14 -d -1 -p AODV -e 106 -c 2 -a 0 -i 0 -k MAC
+ -t 1.036552626 -s 13 -d -1 -p AODV -e 106 -c 2 -a 0 -i 0 -k MAC 
- -t 1.036552626 -s 13 -d -1 -p AODV -e 106 -c 2 -a 0 -i 0 -k MAC
h -t 1.036552626 -s 13 -d -1 -p AODV -e 106 -c 2 -a 0 -i 0 -k MAC
r -t 1.037400996 -s 12 -d -1 -p AODV -e 48 -c 2 -a 0 -i 0 -k MAC
r -t 1.037401294 -s 7 -d -1 -p AODV -e 48 -c 2 -a 0 -i 0 -k MAC
r -t 1.037401319 -s 8 -d -1 -p AODV -e 48 -c 2 -a 0 -i 0 -k MAC
r -t 1.037425996 -s 12 -d -1 -p AODV -e 48 -c 2 -a 0 -i 0 -k RTR
r -t 1.037426294 -s 7 -d -1 -p AODV -e 48 -c 2 -a 0 -i 0 -k RTR
r -t 1.037426319 -s 8 -d -1 -p AODV -e 48 -c 2 -a 0 -i 0 -k RTR
+ -t 1.037936401 -s 3 -d -1 -p RTS -e 44 -c 2 -a 0 -i 0 -k MAC 
- -t 1.037936401 -s 3 -d -1 -p RTS -e 44 -c 2 -a 0 -i 0 -k MAC
h -t 1.037936401 -s 3 -d -1 -p RTS -e 44 -c 2 -a 0 -i 0 -k MAC
r -t 1.038289082 -s 5 -d -1 -p RTS -e 44 -c 2 -a 0 -i 0 -k MAC
+ -t 1.038299082 -s 5 -d -1 -p CTS -e 38 -c 2 -a 0 -i 0 -k MAC 
- -t 1.038299082 -s 5 -d -1 -p CTS -e 38 -c 2 -a 0 -i 0 -k MAC
h -t 1.038299082 -s 5 -d -1 -p CTS -e 38 -c 2 -a 0 -i 0 -k MAC
r -t 1.038603763 -s 3 -d -1 -p CTS -e 38 -c 2 -a 0 -i 0 -k MAC
+ -t 1.038613763 -s 3 -d -1 -p ARP -e 86 -c 2 -a 0 -i 0 -k MAC 
- -t 1.038613763 -s 3 -d -1 -p ARP -e 86 -c 2 -a 0 -i 0 -k MAC
h -t 1.038613763 -s 3 -d -1 -p ARP -e 86 -c 2 -a 0 -i 0 -k MAC
r -t 1.039302444 -s 5 -d -1 -p ARP -e 28 -c 2 -a 0 -i 0 -k MAC
+ -t 1.039312444 -s 5 -d -1 -p ACK -e 38 -c 2 -a 0 -i 0 -k MAC 
- -t 1.039312444 -s 5 -d -1 -p ACK -e 38 -c 2 -a 0 -i 0 -k MAC
h -t 1.039312444 -s 5 -d -1 -p ACK -e 38 -c 2 -a 0 -i 0 -k MAC
r -t 1.039617125 -s 3 -d -1 -p ACK -e 38 -c 2 -a 0 -i 0 -k MAC
+ -t 1.039706444 -s 5 -d -1 -p RTS -e 44 -c 2 -a 0 -i 0 -k MAC 
- -t 1.039706444 -s 5 -d -1 -p RTS -e 44 -c 2 -a 0 -i 0 -k MAC
h -t 1.039706444 -s 5 -d -1 -p RTS -e 44 -c 2 -a 0 -i 0 -k MAC
r -t 1.040059125 -s 3 -d -1 -p RTS -e 44 -c 2 -a 0 -i 0 -k MAC
+ -t 1.040069125 -s 3 -d -1 -p CTS -e 38 -c 2 -a 0 -i 0 -k MAC 
- -t 1.040069125 -s 3 -d -1 -p CTS -e 38 -c 2 -a 0 -i 0 -k MAC
h -t 1.040069125 -s 3 -d -1 -p CTS -e 38 -c 2 -a 0 -i 0 -k MAC