n -t * -s 0  -x 179 -y 698 -Z 0 -z 20  -v circle -c green
n -t * -s 1  -x 311 -y 698 -Z 0 -z 20  -v circle -c green
n -t * -s 2  -x 314 -y 580 -Z 0 -z 20  -v circle -c green
n -t * -s 3  -x 179 -y 576 -Z 0 -z 20  -v circle -c green
n -t * -s 4  -x 177 -y 424 -Z 0 -z 20  -v circle -c green
n -t * -s 5  -x 339 -y 449 -Z 0 -z 20  -v circle -c green
n -t * -s 6  -x 458 -y 567 -Z 0 -z 20  -v circle -c green
n -t * -s 7  -x 491 -y 691 -Z 0 -z 20  -v circle -c green
n -t * -s 8  -x 548 -y 590 -Z 0 -z 20  -v circle -c green
n -t * -s 9  -x 526 -y 441 -Z 0 -z 20  -v circle -c green
n -t * -s 10  -x 324 -y 333 -Z 0 -z 20  -v circle -c green
n -t * -s 11  -x 671 -y 487 -Z 0 -z 20  -v circle -c green
n -t * -s 12  -x 708 -y 640 -Z 0 -z 20  -v circle -c green
n -t * -s 13  -x 683 -y 748 -Z 0 -z 20  -v circle -c green
n -t * -s 14  -x 688 -y 368 -Z 0 -z 20  -v circle -c green
n -t * -s 15  -x 516 -y 341 -Z 0 -z 20  -v circle -c green
n -t * -s 16  -x 876 -y 519 -Z 0 -z 20  -v circle -c green
V -t * -v 1.0a5 -a 0
W -t * -x 976 -y 848
A -t * -n 1 -p 0 -o 0x7fffffff -c 30 -a 1
A -t * -h 1 -m 1073741823 -s 0
+ -t 0.029350710 -s 0 -d -1 -p message -e 32 -c 2 -a 0 -i 0 -k RTR 
- -t 0.029350710 -s 0 -d -1 -p message -e 32 -c 2 -a 0 -i 0 -k RTR
h -t 0.029350710 -s 0 -d -1 -p message -e 32 -c 2 -a 0 -i 0 -k RTR
+ -t 0.029625710 -s 0 -d -1 -p message -e 90 -c 2 -a 0 -i 0 -k MAC 
- -t 0.029625710 -s 0 -d -1 -p message -e 90 -c 2 -a 0 -i 0 -k MAC
h -t 0.029625710 -s 0 -d -1 -p message -e 90 -c 2 -a 0 -i 0 -k MAC
r -t 0.030346117 -s 3 -d -1 -p message -e 32 -c 2 -a 0 -i 0 -k MAC
r -t 0.030346150 -s 1 -d -1 -p message -e 32 -c 2 -a 0 -i 0 -k MAC
r -t 0.030346308 -s 2 -d -1 -p message -e 32 -c 2 -a 0 -i 0 -k MAC
r -t 0.030371117 -s 3 -d -1 -p message -e 32 -c 2 -a 0 -i 0 -k RTR
r -t 0.030371150 -s 1 -d -1 -p message -e 32 -c 2 -a 0 -i 0 -k RTR
r -t 0.030371308 -s 2 -d -1 -p message -e 32 -c 2 -a 0 -i 0 -k RTR
+ -t 0.089675972 -s 11 -d -1 -p message -e 32 -c 2 -a 0 -i 1 -k RTR 
- -t 0.089675972 -s 11 -d -1 -p message -e 32 -c 2 -a 0 -i 1 -k RTR
h -t 0.089675972 -s 11 -d -1 -p message -e 32 -c 2 -a 0 -i 1 -k RTR
+ -t 0.090190972 -s 11 -d -1 -p message -e 90 -c 2 -a 0 -i 1 -k MAC 
- -t 0.090190972 -s 11 -d -1 -p message -e 90 -c 2 -a 0 -i 1 -k MAC
h -t 0.090190972 -s 11 -d -1 -p message -e 90 -c 2 -a 0 -i 1 -k MAC
r -t 0.090911373 -s 14 -d -1 -p message -e 32 -c 2 -a 0 -i 1 -k MAC
r -t 0.090911479 -s 9 -d -1 -p message -e 32 -c 2 -a 0 -i 1 -k MAC
r -t 0.090911497 -s 12 -d -1 -p message -e 32 -c 2 -a 0 -i 1 -k MAC
r -t 0.090911507 -s 8 -d -1 -p message -e 32 -c 2 -a 0 -i 1 -k MAC
r -t 0.090911664 -s 16 -d -1 -p message -e 32 -c 2 -a 0 -i 1 -k MAC
r -t 0.090911682 -s 15 -d -1 -p message -e 32 -c 2 -a 0 -i 1 -k MAC
r -t 0.090911731 -s 6 -d -1 -p message -e 32 -c 2 -a 0 -i 1 -k MAC
r -t 0.090936373 -s 14 -d -1 -p message -e 32 -c 2 -a 0 -i 1 -k RTR
r -t 0.090936479 -s 9 -d -1 -p message -e 32 -c 2 -a 0 -i 1 -k RTR
r -t 0.090936497 -s 12 -d -1 -p message -e 32 -c 2 -a 0 -i 1 -k RTR
r -t 0.090936507 -s 8 -d -1 -p message -e 32 -c 2 -a 0 -i 1 -k RTR
r -t 0.090936664 -s 16 -d -1 -p message -e 32 -c 2 -a 0 -i 1 -k RTR
r -t 0.090936682 -s 15 -d -1 -p message -e 32 -c 2 -a 0 -i 1 -k RTR
r -t 0.090936731 -s 6 -d -1 -p message -e 32 -c 2 -a 0 -i 1 -k RTR
+ -t 0.184866015 -s 1 -d -1 -p message -e 32 -c 2 -a 0 -i 2 -k RTR 
- -t 0.184866015 -s 1 -d -1 -p message -e 32 -c 2 -a 0 -i 2 -k RTR
h -t 0.184866015 -s 1 -d -1 -p message -e 32 -c 2 -a 0 -i 2 -k RTR
+ -t 0.185481015 -s 1 -d -1 -p message -e 90 -c 2 -a 0 -i 2 -k MAC 
- -t 0.185481015 -s 1 -d -1 -p message -e 90 -c 2 -a 0 -i 2 -k MAC
h -t 0.185481015 -s 1 -d -1 -p message -e 90 -c 2 -a 0 -i 2 -k MAC
r -t 0.186201409 -s 2 -d -1 -p message -e 32 -c 2 -a 0 -i 2 -k MAC
r -t 0.186201455 -s 0 -d -1 -p message -e 32 -c 2 -a 0 -i 2 -k MAC
r -t 0.186201615 -s 3 -d -1 -p message -e 32 -c 2 -a 0 -i 2 -k MAC
r -t 0.186201616 -s 7 -d -1 -p message -e 32 -c 2 -a 0 -i 2 -k MAC
r -t 0.186201672 -s 6 -d -1 -p message -e 32 -c 2 -a 0 -i 2 -k MAC
r -t 0.186226409 -s 2 -d -1 -p message -e 32 -c 2 -a 0 -i 2 -k RTR
r -t 0.186226455 -s 0 -d -1 -p message -e 32 -c 2 -a 0 -i 2 -k RTR
r -t 0.186226615 -s 3 -d -1 -p message -e 32 -c 2 -a 0 -i 2 -k RTR
r -t 0.186226616 -s 7 -d -1 -p message -e 32 -c 2 -a 0 -i 2 -k RTR
r -t 0.186226672 -s 6 -d -1 -p message -e 32 -c 2 -a 0 -i 2 -k RTR
+ -t 0.236127563 -s 13 -d -1 -p message -e 32 -c 2 -a 0 -i 3 -k RTR 
- -t 0.236127563 -s 13 -d -1 -p message -e 32 -c 2 -a 0 -i 3 -k RTR
h -t 0.236127563 -s 13 -d -1 -p message -e 32 -c 2 -a 0 -i 3 -k RTR
+ -t 0.236562563 -s 13 -d -1 -p message -e 90 -c 2 -a 0 -i 3 -k MAC 
- -t 0.236562563 -s 13 -d -1 -p message -e 90 -c 2 -a 0 -i 3 -k MAC
h -t 0.236562563 -s 13 -d -1 -p message -e 90 -c 2 -a 0 -i 3 -k MAC
r -t 0.237282932 -s 12 -d -1 -p message -e 32 -c 2 -a 0 -i 3 -k MAC
r -t 0.237283230 -s 7 -d -1 -p message -e 32 -c 2 -a 0 -i 3 -k MAC
r -t 0.237283255 -s 8 -d -1 -p message -e 32 -c 2 -a 0 -i 3 -k MAC
r -t 0.237307932 -s 12 -d -1 -p message -e 32 -c 2 -a 0 -i 3 -k RTR
r -t 0.237308230 -s 7 -d -1 -p message -e 32 -c 2 -a 0 -i 3 -k RTR
r -t 0.237308255 -s 8 -d -1 -p message -e 32 -c 2 -a 0 -i 3 -k RTR
+ -t 0.332346004 -s 10 -d -1 -p message -e 32 -c 2 -a 0 -i 4 -k RTR 
- -t 0.332346004 -s 10 -d -1 -p message -e 32 -c 2 -a 0 -i 4 -k RTR
h -t 0.332346004 -s 10 -d -1 -p message -e 32 -c 2 -a 0 -i 4 -k RTR
+ -t 0.332621004 -s 10 -d -1 -p message -e 90 -c 2 -a 0 -i 4 -k MAC 
- -t 0.332621004 -s 10 -d -1 -p message -e 90 -c 2 -a 0 -i 4 -k MAC
h -t 0.332621004 -s 10 -d -1 -p message -e 90 -c 2 -a 0 -i 4 -k MAC
r -t 0.333341394 -s 5 -d -1 -p message -e 32 -c 2 -a 0 -i 4 -k MAC
r -t 0.333341580 -s 4 -d -1 -p message -e 32 -c 2 -a 0 -i 4 -k MAC
r -t 0.333341645 -s 15 -d -1 -p message -e 32 -c 2 -a 0 -i 4 -k MAC
r -t 0.333341768 -s 9 -d -1 -p message -e 32 -c 2 -a 0 -i 4 -k MAC
r -t 0.333341828 -s 2 -d -1 -p message -e 32 -c 2 -a 0 -i 4 -k MAC
r -t 0.333366394 -s 5 -d -1 -p message -e 32 -c 2 -a 0 -i 4 -k RTR
r -t 0.333366580 -s 4 -d -1 -p message -e 32 -c 2 -a 0 -i 4 -k RTR
r -t 0.333366645 -s 15 -d -1 -p message -e 32 -c 2 -a 0 -i 4 -k RTR
r -t 0.333366768 -s 9 -d -1 -p message -e 32 -c 2 -a 0 -i 4 -k RTR
r -t 0.333366828 -s 2 -d -1 -p message -e 32 -c 2 -a 0 -i 4 -k RTR
+ -t 0.358484943 -s 16 -d -1 -p message -e 32 -c 2 -a 0 -i 5 -k RTR 
- -t 0.358484943 -s 16 -d -1 -p message -e 32 -c 2 -a 0 -i 5 -k RTR
h -t 0.358484943 -s 16 -d -1 -p message -e 32 -c 2 -a 0 -i 5 -k RTR
+ -t 0.358759943 -s 16 -d -1 -p message -e 90 -c 2 -a 0 -i 5 -k MAC 
- -t 0.358759943 -s 16 -d -1 -p message -e 90 -c 2 -a 0 -i 5 -k MAC
h -t 0.358759943 -s 16 -d -1 -p message -e 90 -c 2 -a 0 -i 5 -k MAC
r -t 0.359480633 -s 12 -d -1 -p message -e 32 -c 2 -a 0 -i 5 -k MAC
r -t 0.359480635 -s 11 -d -1 -p message -e 32 -c 2 -a 0 -i 5 -k MAC
r -t 0.359480747 -s 14 -d -1 -p message -e 32 -c 2 -a 0 -i 5 -k MAC
r -t 0.359505633 -s 12 -d -1 -p message -e 32 -c 2 -a 0 -i 5 -k RTR
r -t 0.359505635 -s 11 -d -1 -p message -e 32 -c 2 -a 0 -i 5 -k RTR
r -t 0.359505747 -s 14 -d -1 -p message -e 32 -c 2 -a 0 -i 5 -k RTR
+ -t 0.469787530 -s 6 -d -1 -p message -e 32 -c 2 -a 0 -i 6 -k RTR 
- -t 0.469787530 -s 6 -d -1 -p message -e 32 -c 2 -a 0 -i 6 -k RTR
h -t 0.469787530 -s 6 -d -1 -p message -e 32 -c 2 -a 0 -i 6 -k RTR
+ -t 0.470202530 -s 6 -d -1 -p message -e 90 -c 2 -a 0 -i 6 -k MAC 
- -t 0.470202530 -s 6 -d -1 -p message -e 90 -c 2 -a 0 -i 6 -k MAC
h -t 0.470202530 -s 6 -d -1 -p message -e 90 -c 2 -a 0 -i 6 -k MAC
r -t 0.470922840 -s 8 -d -1 -p message -e 32 -c 2 -a 0 -i 6 -k MAC
r -t 0.470922958 -s 7 -d -1 -p message -e 32 -c 2 -a 0 -i 6 -k MAC
r -t 0.470923007 -s 9 -d -1 -p message -e 32 -c 2 -a 0 -i 6 -k MAC
r -t 0.470923012 -s 2 -d -1 -p message -e 32 -c 2 -a 0 -i 6 -k MAC
r -t 0.470923089 -s 5 -d -1 -p message -e 32 -c 2 -a 0 -i 6 -k MAC
r -t 0.470923186 -s 1 -d -1 -p message -e 32 -c 2 -a 0 -i 6 -k MAC
r -t 0.470923288 -s 11 -d -1 -p message -e 32 -c 2 -a 0 -i 6 -k MAC
r -t 0.470923308 -s 15 -d -1 -p message -e 32 -c 2 -a 0 -i 6 -k MAC
r -t 0.470947840 -s 8 -d -1 -p message -e 32 -c 2 -a 0 -i 6 -k RTR
r -t 0.470947958 -s 7 -d -1 -p message -e 32 -c 2 -a 0 -i 6 -k RTR
r -t 0.470948007 -s 9 -d -1 -p message -e 32 -c 2 -a 0 -i 6 -k RTR
r -t 0.470948012 -s 2 -d -1 -p message -e 32 -c 2 -a 0 -i 6 -k RTR
r -t 0.470948089 -s 5 -d -1 -p message -e 32 -c 2 -a 0 -i 6 -k RTR
r -t 0.470948186 -s 1 -d -1 -p message -e 32 -c 2 -a 0 -i 6 -k RTR
r -t 0.470948288 -s 11 -d -1 -p message -e 32 -c 2 -a 0 -i 6 -k RTR
r -t 0.470948308 -s 15 -d -1 -p message -e 32 -c 2 -a 0 -i 6 -k RTR
+ -t 0.619389151 -s 8 -d -1 -p message -e 32 -c 2 -a 0 -i 7 -k RTR 
- -t 0.619389151 -s 8 -d -1 -p message -e 32 -c 2 -a 0 -i 7 -k RTR
h -t 0.619389151 -s 8 -d -1 -p message -e 32 -c 2 -a 0 -i 7 -k RTR
+ -t 0.619744151 -s 8 -d -1 -p message -e 90 -c 2 -a 0 -i 7 -k MAC 
- -t 0.619744151 -s 8 -d -1 -p message -e 90 -c 2 -a 0 -i 7 -k MAC
h -t 0.619744151 -s 8 -d -1 -p message -e 90 -c 2 -a 0 -i 7 -k MAC
r -t 0.620464460 -s 6 -d -1 -p message -e 32 -c 2 -a 0 -i 7 -k MAC
r -t 0.620464537 -s 7 -d -1 -p message -e 32 -c 2 -a 0 -i 7 -k MAC
r -t 0.620464653 -s 9 -d -1 -p message -e 32 -c 2 -a 0 -i 7 -k MAC
r -t 0.620464685 -s 11 -d -1 -p message -e 32 -c 2 -a 0 -i 7 -k MAC
r -t 0.620464709 -s 12 -d -1 -p message -e 32 -c 2 -a 0 -i 7 -k MAC
r -t 0.620464843 -s 13 -d -1 -p message -e 32 -c 2 -a 0 -i 7 -k MAC
r -t 0.620464931 -s 2 -d -1 -p message -e 32 -c 2 -a 0 -i 7 -k MAC
r -t 0.620489460 -s 6 -d -1 -p message -e 32 -c 2 -a 0 -i 7 -k RTR
r -t 0.620489537 -s 7 -d -1 -p message -e 32 -c 2 -a 0 -i 7 -k RTR
r -t 0.620489653 -s 9 -d -1 -p message -e 32 -c 2 -a 0 -i 7 -k RTR
r -t 0.620489685 -s 11 -d -1 -p message -e 32 -c 2 -a 0 -i 7 -k RTR
r -t 0.620489709 -s 12 -d -1 -p message -e 32 -c 2 -a 0 -i 7 -k RTR
r -t 0.620489843 -s 13 -d -1 -p message -e 32 -c 2 -a 0 -i 7 -k RTR
r -t 0.620489931 -s 2 -d -1 -p message -e 32 -c 2 -a 0 -i 7 -k RTR
+ -t 0.631371763 -s 4 -d -1 -p message -e 32 -c 2 -a 0 -i 8 -k RTR 
- -t 0.631371763 -s 4 -d -1 -p message -e 32 -c 2 -a 0 -i 8 -k RTR
h -t 0.631371763 -s 4 -d -1 -p message -e 32 -c 2 -a 0 -i 8 -k RTR
+ -t 0.631766763 -s 4 -d -1 -p message -e 90 -c 2 -a 0 -i 8 -k MAC 
- -t 0.631766763 -s 4 -d -1 -p message -e 90 -c 2 -a 0 -i 8 -k MAC
h -t 0.631766763 -s 4 -d -1 -p message -e 90 -c 2 -a 0 -i 8 -k MAC
r -t 0.632487270 -s 3 -d -1 -p message -e 32 -c 2 -a 0 -i 8 -k MAC
r -t 0.632487309 -s 5 -d -1 -p message -e 32 -c 2 -a 0 -i 8 -k MAC
r -t 0.632487339 -s 10 -d -1 -p message -e 32 -c 2 -a 0 -i 8 -k MAC
r -t 0.632487455 -s 2 -d -1 -p message -e 32 -c 2 -a 0 -i 8 -k MAC
r -t 0.632512270 -s 3 -d -1 -p message -e 32 -c 2 -a 0 -i 8 -k RTR
r -t 0.632512309 -s 5 -d -1 -p message -e 32 -c 2 -a 0 -i 8 -k RTR
r -t 0.632512339 -s 10 -d -1 -p message -e 32 -c 2 -a 0 -i 8 -k RTR
r -t 0.632512455 -s 2 -d -1 -p message -e 32 -c 2 -a 0 -i 8 -k RTR
+ -t 0.851570345 -s 15 -d -1 -p message -e 32 -c 2 -a 0 -i 9 -k RTR 
- -t 0.851570345 -s 15 -d -1 -p message -e 32 -c 2 -a 0 -i 9 -k RTR
h -t 0.851570345 -s 15 -d -1 -p message -e 32 -c 2 -a 0 -i 9 -k RTR
+ -t 0.851945345 -s 15 -d -1 -p message -e 90 -c 2 -a 0 -i 9 -k MAC 
- -t 0.851945345 -s 15 -d -1 -p message -e 90 -c 2 -a 0 -i 9 -k MAC
h -t 0.851945345 -s 15 -d -1 -p message -e 90 -c 2 -a 0 -i 9 -k MAC
r -t 0.852665680 -s 9 -d -1 -p message -e 32 -c 2 -a 0 -i 9 -k MAC
r -t 0.852665926 -s 14 -d -1 -p message -e 32 -c 2 -a 0 -i 9 -k MAC
r -t 0.852665986 -s 10 -d -1 -p message -e 32 -c 2 -a 0 -i 9 -k MAC
r -t 0.852666037 -s 5 -d -1 -p message -e 32 -c 2 -a 0 -i 9 -k MAC
r -t 0.852666055 -s 11 -d -1 -p message -e 32 -c 2 -a 0 -i 9 -k MAC
r -t 0.852666123 -s 6 -d -1 -p message -e 32 -c 2 -a 0 -i 9 -k MAC
r -t 0.852690680 -s 9 -d -1 -p message -e 32 -c 2 -a 0 -i 9 -k RTR
r -t 0.852690926 -s 14 -d -1 -p message -e 32 -c 2 -a 0 -i 9 -k RTR
r -t 0.852690986 -s 10 -d -1 -p message -e 32 -c 2 -a 0 -i 9 -k RTR
r -t 0.852691037 -s 5 -d -1 -p message -e 32 -c 2 -a 0 -i 9 -k RTR
r -t 0.852691055 -s 11 -d -1 -p message -e 32 -c 2 -a 0 -i 9 -k RTR
r -t 0.852691123 -s 6 -d -1 -p message -e 32 -c 2 -a 0 -i 9 -k RTR
+ -t 0.890196635 -s 2 -d -1 -p message -e 32 -c 2 -a 0 -i 10 -k RTR 
- -t 0.890196635 -s 2 -d -1 -p message -e 32 -c 2 -a 0 -i 10 -k RTR
h -t 0.890196635 -s 2 -d -1 -p message -e 32 -c 2 -a 0 -i 10 -k RTR
+ -t 0.890551635 -s 2 -d -1 -p message -e 90 -c 2 -a 0 -i 10 -k MAC 
- -t 0.890551635 -s 2 -d -1 -p message -e 90 -c 2 -a 0 -i 10 -k MAC
h -t 0.890551635 -s 2 -d -1 -p message -e 90 -c 2 -a 0 -i 10 -k MAC
r -t 0.891272029 -s 1 -d -1 -p message -e 32 -c 2 -a 0 -i 10 -k MAC
r -t 0.891272080 -s 5 -d -1 -p message -e 32 -c 2 -a 0 -i 10 -k MAC
r -t 0.891272085 -s 3 -d -1 -p message -e 32 -c 2 -a 0 -i 10 -k MAC
r -t 0.891272117 -s 6 -d -1 -p message -e 32 -c 2 -a 0 -i 10 -k MAC
r -t 0.891272233 -s 0 -d -1 -p message -e 32 -c 2 -a 0 -i 10 -k MAC
r -t 0.891272327 -s 4 -d -1 -p message -e 32 -c 2 -a 0 -i 10 -k MAC
r -t 0.891272332 -s 7 -d -1 -p message -e 32 -c 2 -a 0 -i 10 -k MAC
r -t 0.891272416 -s 8 -d -1 -p message -e 32 -c 2 -a 0 -i 10 -k MAC
r -t 0.891272459 -s 10 -d -1 -p message -e 32 -c 2 -a 0 -i 10 -k MAC
r -t 0.891297029 -s 1 -d -1 -p message -e 32 -c 2 -a 0 -i 10 -k RTR
r -t 0.891297080 -s 5 -d -1 -p message -e 32 -c 2 -a 0 -i 10 -k RTR
r -t 0.891297085 -s 3 -d -1 -p message -e 32 -c 2 -a 0 -i 10 -k RTR
r -t 0.891297117 -s 6 -d -1 -p message -e 32 -c 2 -a 0 -i 10 -k RTR
r -t 0.891297233 -s 0 -d -1 -p message -e 32 -c 2 -a 0 -i 10 -k RTR
r -t 0.891297327 -s 4 -d -1 -p message -e 32 -c 2 -a 0 -i 10 -k RTR
r -t 0.891297332 -s 7 -d -1 -p message -e 32 -c 2 -a 0 -i 10 -k RTR
r -t 0.891297416 -s 8 -d -1 -p message -e 32 -c 2 -a 0 -i 10 -k RTR
r -t 0.891297459 -s 10 -d -1 -p message -e 32 -c 2 -a 0 -i 10 -k RTR
n -t 1.000000 -s 6 -x 458.000000 -y 567.000000 -U 1.553926 -V -9.878528 -T 27.028318
+ -t 1.000000000 -s 3 -d -1 -p tcp -e 40 -c 2 -a 0 -i 11 -k AGT 
- -t 1.000000000 -s 3 -d -1 -p tcp -e 40 -c 2 -a 0 -i 11 -k AGT
h -t 1.000000000 -s 3 -d -1 -p tcp -e 40 -c 2 -a 0 -i 11 -k AGT
+ -t 1.284679659 -s 7 -d -1 -p message -e 32 -c 2 -a 0 -i 12 -k RTR 
- -t 1.284679659 -s 7 -d -1 -p message -e 32 -c 2 -a 0 -i 12 -k RTR
h -t 1.284679659 -s 7 -d -1 -p message -e 32 -c 2 -a 0 -i 12 -k RTR
+ -t 1.284794659 -s 7 -d -1 -p message -e 90 -c 2 -a 0 -i 12 -k MAC 
- -t 1.284794659 -s 7 -d -1 -p message -e 90 -c 2 -a 0 -i 12 -k MAC
h -t 1.284794659 -s 7 -d -1 -p message -e 90 -c 2 -a 0 -i 12 -k MAC
r -t 1.285515046 -s 8 -d -1 -p message -e 32 -c 2 -a 0 -i 12 -k MAC
r -t 1.285515096 -s 6 -d -1 -p message -e 32 -c 2 -a 0 -i 12 -k MAC
r -t 1.285515260 -s 1 -d -1 -p message -e 32 -c 2 -a 0 -i 12 -k MAC
r -t 1.285515327 -s 13 -d -1 -p message -e 32 -c 2 -a 0 -i 12 -k MAC
r -t 1.285515356 -s 2 -d -1 -p message -e 32 -c 2 -a 0 -i 12 -k MAC
r -t 1.285515402 -s 12 -d -1 -p message -e 32 -c 2 -a 0 -i 12 -k MAC
r -t 1.285540046 -s 8 -d -1 -p message -e 32 -c 2 -a 0 -i 12 -k RTR
r -t 1.285540096 -s 6 -d -1 -p message -e 32 -c 2 -a 0 -i 12 -k RTR
r -t 1.285540260 -s 1 -d -1 -p message -e 32 -c 2 -a 0 -i 12 -k RTR
r -t 1.285540327 -s 13 -d -1 -p message -e 32 -c 2 -a 0 -i 12 -k RTR
r -t 1.285540356 -s 2 -d -1 -p message -e 32 -c 2 -a 0 -i 12 -k RTR
r -t 1.285540402 -s 12 -d -1 -p message -e 32 -c 2 -a 0 -i 12 -k RTR
+ -t 1.289895385 -s 12 -d -1 -p message -e 32 -c 2 -a 0 -i 13 -k RTR 
- -t 1.289895385 -s 12 -d -1 -p message -e 32 -c 2 -a 0 -i 13 -k RTR
h -t 1.289895385 -s 12 -d -1 -p message -e 32 -c 2 -a 0 -i 13 -k RTR
+ -t 1.290090385 -s 12 -d -1 -p message -e 90 -c 2 -a 0 -i 13 -k MAC 
- -t 1.290090385 -s 12 -d -1 -p message -e 90 -c 2 -a 0 -i 13 -k MAC
h -t 1.290090385 -s 12 -d -1 -p message -e 90 -c 2 -a 0 -i 13 -k MAC
r -t 1.290810755 -s 13 -d -1 -p message -e 32 -c 2 -a 0 -i 13 -k MAC
r -t 1.290810910 -s 11 -d -1 -p message -e 32 -c 2 -a 0 -i 13 -k MAC
r -t 1.290810944 -s 8 -d -1 -p message -e 32 -c 2 -a 0 -i 13 -k MAC
r -t 1.290811075 -s 16 -d -1 -p message -e 32 -c 2 -a 0 -i 13 -k MAC
r -t 1.290811128 -s 7 -d -1 -p message -e 32 -c 2 -a 0 -i 13 -k MAC
r -t 1.290835755 -s 13 -d -1 -p message -e 32 -c 2 -a 0 -i 13 -k RTR
r -t 1.290835910 -s 11 -d -1 -p message -e 32 -c 2 -a 0 -i 13 -k RTR
r -t 1.290835944 -s 8 -d -1 -p message -e 32 -c 2 -a 0 -i 13 -k RTR
r -t 1.290836075 -s 16 -d -1 -p message -e 32 -c 2 -a 0 -i 13 -k RTR
r -t 1.290836128 -s 7 -d -1 -p message -e 32 -c 2 -a 0 -i 13 -k RTR
+ -t 1.605661818 -s 3 -d -1 -p message -e 32 -c 2 -a 0 -i 14 -k RTR 
- -t 1.605661818 -s 3 -d -1 -p message -e 32 -c 2 -a 0 -i 14 -k RTR
h -t 1.605661818 -s 3 -d -1 -p message -e 32 -c 2 -a 0 -i 14 -k RTR
+ -t 1.605996818 -s 3 -d -1 -p message -e 90 -c 2 -a 0 -i 14 -k MAC 
- -t 1.605996818 -s 3 -d -1 -p message -e 90 -c 2 -a 0 -i 14 -k MAC
h -t 1.605996818 -s 3 -d -1 -p message -e 90 -c 2 -a 0 -i 14 -k MAC
r -t 1.606717225 -s 0 -d -1 -p message -e 32 -c 2 -a 0 -i 14 -k MAC
r -t 1.606717268 -s 2 -d -1 -p message -e 32 -c 2 -a 0 -i 14 -k MAC
r -t 1.606717325 -s 4 -d -1 -p message -e 32 -c 2 -a 0 -i 14 -k MAC
r -t 1.606717417 -s 1 -d -1 -p message -e 32 -c 2 -a 0 -i 14 -k MAC
r -t 1.606717499 -s 5 -d -1 -p message -e 32 -c 2 -a 0 -i 14 -k MAC
r -t 1.606742225 -s 0 -d -1 -p message -e 32 -c 2 -a 0 -i 14 -k RTR
r -t 1.606742268 -s 2 -d -1 -p message -e 32 -c 2 -a 0 -i 14 -k RTR
r -t 1.606742325 -s 4 -d -1 -p message -e 32 -c 2 -a 0 -i 14 -k RTR
r -t 1.606742417 -s 1 -d -1 -p message -e 32 -c 2 -a 0 -i 14 -k RTR
r -t 1.606742499 -s 5 -d -1 -p message -e 32 -c 2 -a 0 -i 14 -k RTR
+ -t 1.641980579 -s 5 -d -1 -p message -e 32 -c 2 -a 0 -i 15 -k RTR 
- -t 1.641980579 -s 5 -d -1 -p message -e 32 -c 2 -a 0 -i 15 -k RTR
h -t 1.641980579 -s 5 -d -1 -p message -e 32 -c 2 -a 0 -i 15 -k RTR
+ -t 1.642655579 -s 5 -d -1 -p message -e 90 -c 2 -a 0 -i 15 -k MAC 
- -t 1.642655579 -s 5 -d -1 -p message -e 90 -c 2 -a 0 -i 15 -k MAC
h -t 1.642655579 -s 5 -d -1 -p message -e 90 -c 2 -a 0 -i 15 -k MAC
r -t 1.643375969 -s 10 -d -1 -p message -e 32 -c 2 -a 0 -i 15 -k MAC
r -t 1.643376024 -s 2 -d -1 -p message -e 32 -c 2 -a 0 -i 15 -k MAC
r -t 1.643376126 -s 6 -d -1 -p message -e 32 -c 2 -a 0 -i 15 -k MAC
r -t 1.643376126 -s 4 -d -1 -p message -e 32 -c 2 -a 0 -i 15 -k MAC
r -t 1.643376203 -s 9 -d -1 -p message -e 32 -c 2 -a 0 -i 15 -k MAC
r -t 1.643376260 -s 3 -d -1 -p message -e 32 -c 2 -a 0 -i 15 -k MAC
r -t 1.643376270 -s 15 -d -1 -p message -e 32 -c 2 -a 0 -i 15 -k MAC
r -t 1.643400969 -s 10 -d -1 -p message -e 32 -c 2 -a 0 -i 15 -k RTR
r -t 1.643401024 -s 2 -d -1 -p message -e 32 -c 2 -a 0 -i 15 -k RTR
r -t 1.643401126 -s 6 -d -1 -p message -e 32 -c 2 -a 0 -i 15 -k RTR
r -t 1.643401126 -s 4 -d -1 -p message -e 32 -c 2 -a 0 -i 15 -k RTR
r -t 1.643401203 -s 9 -d -1 -p message -e 32 -c 2 -a 0 -i 15 -k RTR
r -t 1.643401260 -s 3 -d -1 -p message -e 32 -c 2 -a 0 -i 15 -k RTR
r -t 1.643401270 -s 15 -d -1 -p message -e 32 -c 2 -a 0 -i 15 -k RTR
+ -t 1.680005479 -s 9 -d -1 -p message -e 32 -c 2 -a 0 -i 16 -k RTR 
- -t 1.680005479 -s 9 -d -1 -p message -e 32 -c 2 -a 0 -i 16 -k RTR
h -t 1.680005479 -s 9 -d -1 -p message -e 32 -c 2 -a 0 -i 16 -k RTR
+ -t 1.680200479 -s 9 -d -1 -p message -e 90 -c 2 -a 0 -i 16 -k MAC 
- -t 1.680200479 -s 9 -d -1 -p message -e 90 -c 2 -a 0 -i 16 -k MAC
h -t 1.680200479 -s 9 -d -1 -p message -e 90 -c 2 -a 0 -i 16 -k MAC
r -t 1.680920814 -s 15 -d -1 -p message -e 32 -c 2 -a 0 -i 16 -k MAC
r -t 1.680920935 -s 6 -d -1 -p message -e 32 -c 2 -a 0 -i 16 -k MAC
r -t 1.680920981 -s 8 -d -1 -p message -e 32 -c 2 -a 0 -i 16 -k MAC
r -t 1.680920986 -s 11 -d -1 -p message -e 32 -c 2 -a 0 -i 16 -k MAC
r -t 1.680921071 -s 14 -d -1 -p message -e 32 -c 2 -a 0 -i 16 -k MAC
r -t 1.680921103 -s 5 -d -1 -p message -e 32 -c 2 -a 0 -i 16 -k MAC
r -t 1.680921243 -s 10 -d -1 -p message -e 32 -c 2 -a 0 -i 16 -k MAC
r -t 1.680945814 -s 15 -d -1 -p message -e 32 -c 2 -a 0 -i 16 -k RTR
r -t 1.680945935 -s 6 -d -1 -p message -e 32 -c 2 -a 0 -i 16 -k RTR
r -t 1.680945981 -s 8 -d -1 -p message -e 32 -c 2 -a 0 -i 16 -k RTR
r -t 1.680945986 -s 11 -d -1 -p message -e 32 -c 2 -a 0 -i 16 -k RTR
r -t 1.680946071 -s 14 -d -1 -p message -e 32 -c 2 -a 0 -i 16 -k RTR
r -t 1.680946103 -s 5 -d -1 -p message -e 32 -c 2 -a 0 -i 16 -k RTR
r -t 1.680946243 -s 10 -d -1 -p message -e 32 -c 2 -a 0 -i 16 -k RTR
+ -t 1.727611218 -s 14 -d -1 -p message -e 32 -c 2 -a 0 -i 17 -k RTR 
- -t 1.727611218 -s 14 -d -1 -p message -e 32 -c 2 -a 0 -i 17 -k RTR
h -t 1.727611218 -s 14 -d -1 -p message -e 32 -c 2 -a 0 -i 17 -k RTR
+ -t 1.727986218 -s 14 -d -1 -p message -e 90 -c 2 -a 0 -i 17 -k MAC 
- -t 1.727986218 -s 14 -d -1 -p message -e 90 -c 2 -a 0 -i 17 -k MAC
h -t 1.727986218 -s 14 -d -1 -p message -e 90 -c 2 -a 0 -i 17 -k MAC
r -t 1.728706619 -s 11 -d -1 -p message -e 32 -c 2 -a 0 -i 17 -k MAC
r -t 1.728706799 -s 15 -d -1 -p message -e 32 -c 2 -a 0 -i 17 -k MAC
r -t 1.728706811 -s 9 -d -1 -p message -e 32 -c 2 -a 0 -i 17 -k MAC
r -t 1.728707022 -s 16 -d -1 -p message -e 32 -c 2 -a 0 -i 17 -k MAC
r -t 1.728731619 -s 11 -d -1 -p message -e 32 -c 2 -a 0 -i 17 -k RTR
r -t 1.728731799 -s 15 -d -1 -p message -e 32 -c 2 -a 0 -i 17 -k RTR
r -t 1.728731811 -s 9 -d -1 -p message -e 32 -c 2 -a 0 -i 17 -k RTR
r -t 1.728732022 -s 16 -d -1 -p message -e 32 -c 2 -a 0 -i 17 -k RTR
n -t 2.000000 -s 9 -x 526.000000 -y 441.000000 -U -25.088221 -V 16.449352 -T 8.450181
+ -t 2.000000000 -s 4 -d -1 -p tcp -e 40 -c 2 -a 0 -i 18 -k AGT 
- -t 2.000000000 -s 4 -d -1 -p tcp -e 40 -c 2 -a 0 -i 18 -k AGT
h -t 2.000000000 -s 4 -d -1 -p tcp -e 40 -c 2 -a 0 -i 18 -k AGT
+ -t 4.000000000 -s 3 -d -1 -p tcp -e 40 -c 2 -a 0 -i 19 -k AGT 
- -t 4.000000000 -s 3 -d -1 -p tcp -e 40 -c 2 -a 0 -i 19 -k AGT
h -t 4.000000000 -s 3 -d -1 -p tcp -e 40 -c 2 -a 0 -i 19 -k AGT
+ -t 5.000000000 -s 4 -d -1 -p tcp -e 40 -c 2 -a 0 -i 20 -k AGT 
- -t 5.000000000 -s 4 -d -1 -p tcp -e 40 -c 2 -a 0 -i 20 -k AGT
h -t 5.000000000 -s 4 -d -1 -p tcp -e 40 -c 2 -a 0 -i 20 -k AGT
n -t 8.000000 -s 9 -x 375.470676 -y 539.696113 -U 21.911169 -V -12.037470 -T 14.263471
n -t 10.000000 -s 6 -x 471.985332 -y 478.093248 -U 29.570152 -V 5.060248 -T 4.329185
+ -t 10.000000000 -s 3 -d -1 -p tcp -e 40 -c 2 -a 0 -i 21 -k AGT 
- -t 10.000000000 -s 3 -d -1 -p tcp -e 40 -c 2 -a 0 -i 21 -k AGT
h -t 10.000000000 -s 3 -d -1 -p tcp -e 40 -c 2 -a 0 -i 21 -k AGT
+ -t 11.000000000 -s 4 -d -1 -p tcp -e 40 -c 2 -a 0 -i 22 -k AGT 
- -t 11.000000000 -s 4 -d -1 -p tcp -e 40 -c 2 -a 0 -i 22 -k AGT
h -t 11.000000000 -s 4 -d -1 -p tcp -e 40 -c 2 -a 0 -i 22 -k AGT
+ -t 11.763798547 -s 6 -d -1 -p message -e 32 -c 2 -a 0 -i 23 -k RTR 
- -t 11.763798547 -s 6 -d -1 -p message -e 32 -c 2 -a 0 -i 23 -k RTR
h -t 11.763798547 -s 6 -d -1 -p message -e 32 -c 2 -a 0 -i 23 -k RTR
+ -t 11.763913547 -s 6 -d -1 -p message -e 90 -c 2 -a 0 -i 23 -k MAC 
- -t 11.763913547 -s 6 -d -1 -p message -e 90 -c 2 -a 0 -i 23 -k MAC
h -t 11.763913547 -s 6 -d -1 -p message -e 90 -c 2 -a 0 -i 23 -k MAC
r -t 11.764633769 -s 9 -d -1 -p message -e 32 -c 2 -a 0 -i 23 -k MAC
r -t 11.764633900 -s 8 -d -1 -p message -e 32 -c 2 -a 0 -i 23 -k MAC
r -t 11.764634035 -s 15 -d -1 -p message -e 32 -c 2 -a 0 -i 23 -k MAC
r -t 11.764634037 -s 11 -d -1 -p message -e 32 -c 2 -a 0 -i 23 -k MAC
r -t 11.764634177 -s 5 -d -1 -p message -e 32 -c 2 -a 0 -i 23 -k MAC
r -t 11.764634222 -s 14 -d -1 -p message -e 32 -c 2 -a 0 -i 23 -k MAC
r -t 11.764634236 -s 7 -d -1 -p message -e 32 -c 2 -a 0 -i 23 -k MAC
r -t 11.764634313 -s 2 -d -1 -p message -e 32 -c 2 -a 0 -i 23 -k MAC
r -t 11.764634345 -s 12 -d -1 -p message -e 32 -c 2 -a 0 -i 23 -k MAC
r -t 11.764658769 -s 9 -d -1 -p message -e 32 -c 2 -a 0 -i 23 -k RTR
r -t 11.764658900 -s 8 -d -1 -p message -e 32 -c 2 -a 0 -i 23 -k RTR
r -t 11.764659035 -s 15 -d -1 -p message -e 32 -c 2 -a 0 -i 23 -k RTR
r -t 11.764659037 -s 11 -d -1 -p message -e 32 -c 2 -a 0 -i 23 -k RTR
r -t 11.764659177 -s 5 -d -1 -p message -e 32 -c 2 -a 0 -i 23 -k RTR
r -t 11.764659222 -s 14 -d -1 -p message -e 32 -c 2 -a 0 -i 23 -k RTR
r -t 11.764659236 -s 7 -d -1 -p message -e 32 -c 2 -a 0 -i 23 -k RTR
r -t 11.764659313 -s 2 -d -1 -p message -e 32 -c 2 -a 0 -i 23 -k RTR
r -t 11.764659345 -s 12 -d -1 -p message -e 32 -c 2 -a 0 -i 23 -k RTR
+ -t 11.988619382 -s 10 -d -1 -p message -e 32 -c 2 -a 0 -i 24 -k RTR 
- -t 11.988619382 -s 10 -d -1 -p message -e 32 -c 2 -a 0 -i 24 -k RTR
h -t 11.988619382 -s 10 -d -1 -p message -e 32 -c 2 -a 0 -i 24 -k RTR
+ -t 11.988854382 -s 10 -d -1 -p message -e 90 -c 2 -a 0 -i 24 -k MAC 
- -t 11.988854382 -s 10 -d -1 -p message -e 90 -c 2 -a 0 -i 24 -k MAC
h -t 11.988854382 -s 10 -d -1 -p message -e 90 -c 2 -a 0 -i 24 -k MAC
r -t 11.989574772 -s 5 -d -1 -p message -e 32 -c 2 -a 0 -i 24 -k MAC
r -t 11.989574958 -s 4 -d -1 -p message -e 32 -c 2 -a 0 -i 24 -k MAC
r -t 11.989575022 -s 15 -d -1 -p message -e 32 -c 2 -a 0 -i 24 -k MAC
r -t 11.989575085 -s 9 -d -1 -p message -e 32 -c 2 -a 0 -i 24 -k MAC
r -t 11.989575206 -s 2 -d -1 -p message -e 32 -c 2 -a 0 -i 24 -k MAC
r -t 11.989599772 -s 5 -d -1 -p message -e 32 -c 2 -a 0 -i 24 -k RTR
r -t 11.989599958 -s 4 -d -1 -p message -e 32 -c 2 -a 0 -i 24 -k RTR
r -t 11.989600022 -s 15 -d -1 -p message -e 32 -c 2 -a 0 -i 24 -k RTR
r -t 11.989600085 -s 9 -d -1 -p message -e 32 -c 2 -a 0 -i 24 -k RTR
r -t 11.989600206 -s 2 -d -1 -p message -e 32 -c 2 -a 0 -i 24 -k RTR
+ -t 12.030699040 -s 3 -d -1 -p message -e 32 -c 2 -a 0 -i 25 -k RTR 
- -t 12.030699040 -s 3 -d -1 -p message -e 32 -c 2 -a 0 -i 25 -k RTR
h -t 12.030699040 -s 3 -d -1 -p message -e 32 -c 2 -a 0 -i 25 -k RTR
+ -t 12.030994040 -s 3 -d -1 -p message -e 90 -c 2 -a 0 -i 25 -k MAC 
- -t 12.030994040 -s 3 -d -1 -p message -e 90 -c 2 -a 0 -i 25 -k MAC
h -t 12.030994040 -s 3 -d -1 -p message -e 90 -c 2 -a 0 -i 25 -k MAC
r -t 12.031714447 -s 0 -d -1 -p message -e 32 -c 2 -a 0 -i 25 -k MAC
r -t 12.031714490 -s 2 -d -1 -p message -e 32 -c 2 -a 0 -i 25 -k MAC
r -t 12.031714547 -s 4 -d -1 -p message -e 32 -c 2 -a 0 -i 25 -k MAC
r -t 12.031714639 -s 1 -d -1 -p message -e 32 -c 2 -a 0 -i 25 -k MAC
r -t 12.031714721 -s 5 -d -1 -p message -e 32 -c 2 -a 0 -i 25 -k MAC
r -t 12.031739447 -s 0 -d -1 -p message -e 32 -c 2 -a 0 -i 25 -k RTR
r -t 12.031739490 -s 2 -d -1 -p message -e 32 -c 2 -a 0 -i 25 -k RTR
r -t 12.031739547 -s 4 -d -1 -p message -e 32 -c 2 -a 0 -i 25 -k RTR
r -t 12.031739639 -s 1 -d -1 -p message -e 32 -c 2 -a 0 -i 25 -k RTR
r -t 12.031739721 -s 5 -d -1 -p message -e 32 -c 2 -a 0 -i 25 -k RTR
+ -t 12.033421197 -s 2 -d -1 -p message -e 32 -c 2 -a 0 -i 27 -k RTR 
- -t 12.033421197 -s 2 -d -1 -p message -e 32 -c 2 -a 0 -i 27 -k RTR
h -t 12.033421197 -s 2 -d -1 -p message -e 32 -c 2 -a 0 -i 27 -k RTR
+ -t 12.033636197 -s 2 -d -1 -p message -e 90 -c 2 -a 0 -i 27 -k MAC 
- -t 12.033636197 -s 2 -d -1 -p message -e 90 -c 2 -a 0 -i 27 -k MAC
h -t 12.033636197 -s 2 -d -1 -p message -e 90 -c 2 -a 0 -i 27 -k MAC
+ -t 12.034023623 -s 1 -d -1 -p message -e 32 -c 2 -a 0 -i 26 -k RTR 
- -t 12.034023623 -s 1 -d -1 -p message -e 32 -c 2 -a 0 -i 26 -k RTR
h -t 12.034023623 -s 1 -d -1 -p message -e 32 -c 2 -a 0 -i 26 -k RTR
r -t 12.034356591 -s 1 -d -1 -p message -e 32 -c 2 -a 0 -i 27 -k MAC
r -t 12.034356642 -s 5 -d -1 -p message -e 32 -c 2 -a 0 -i 27 -k MAC
r -t 12.034356647 -s 3 -d -1 -p message -e 32 -c 2 -a 0 -i 27 -k MAC
r -t 12.034356778 -s 9 -d -1 -p message -e 32 -c 2 -a 0 -i 27 -k MAC
r -t 12.034356795 -s 0 -d -1 -p message -e 32 -c 2 -a 0 -i 27 -k MAC
r -t 12.034356889 -s 4 -d -1 -p message -e 32 -c 2 -a 0 -i 27 -k MAC
r -t 12.034356894 -s 7 -d -1 -p message -e 32 -c 2 -a 0 -i 27 -k MAC
r -t 12.034356978 -s 8 -d -1 -p message -e 32 -c 2 -a 0 -i 27 -k MAC
r -t 12.034356986 -s 6 -d -1 -p message -e 32 -c 2 -a 0 -i 27 -k MAC
r -t 12.034357021 -s 10 -d -1 -p message -e 32 -c 2 -a 0 -i 27 -k MAC
r -t 12.034381591 -s 1 -d -1 -p message -e 32 -c 2 -a 0 -i 27 -k RTR
r -t 12.034381642 -s 5 -d -1 -p message -e 32 -c 2 -a 0 -i 27 -k RTR
r -t 12.034381647 -s 3 -d -1 -p message -e 32 -c 2 -a 0 -i 27 -k RTR
r -t 12.034381778 -s 9 -d -1 -p message -e 32 -c 2 -a 0 -i 27 -k RTR
r -t 12.034381795 -s 0 -d -1 -p message -e 32 -c 2 -a 0 -i 27 -k RTR
r -t 12.034381889 -s 4 -d -1 -p message -e 32 -c 2 -a 0 -i 27 -k RTR
r -t 12.034381894 -s 7 -d -1 -p message -e 32 -c 2 -a 0 -i 27 -k RTR
r -t 12.034381978 -s 8 -d -1 -p message -e 32 -c 2 -a 0 -i 27 -k RTR
r -t 12.034381986 -s 6 -d -1 -p message -e 32 -c 2 -a 0 -i 27 -k RTR
r -t 12.034382021 -s 10 -d -1 -p message -e 32 -c 2 -a 0 -i 27 -k RTR
+ -t 12.034766591 -s 1 -d -1 -p message -e 90 -c 2 -a 0 -i 26 -k MAC 
- -t 12.034766591 -s 1 -d -1 -p message -e 90 -c 2 -a 0 -i 26 -k MAC
h -t 12.034766591 -s 1 -d -1 -p message -e 90 -c 2 -a 0 -i 26 -k MAC
r -t 12.035486984 -s 2 -d -1 -p message -e 32 -c 2 -a 0 -i 26 -k MAC
r -t 12.035487031 -s 0 -d -1 -p message -e 32 -c 2 -a 0 -i 26 -k MAC
r -t 12.035487190 -s 3 -d -1 -p message -e 32 -c 2 -a 0 -i 26 -k MAC
r -t 12.035487191 -s 7 -d -1 -p message -e 32 -c 2 -a 0 -i 26 -k MAC
r -t 12.035511984 -s 2 -d -1 -p message -e 32 -c 2 -a 0 -i 26 -k RTR
r -t 12.035512031 -s 0 -d -1 -p message -e 32 -c 2 -a 0 -i 26 -k RTR
r -t 12.035512190 -s 3 -d -1 -p message -e 32 -c 2 -a 0 -i 26 -k RTR
r -t 12.035512191 -s 7 -d -1 -p message -e 32 -c 2 -a 0 -i 26 -k RTR
+ -t 12.091255787 -s 14 -d -1 -p message -e 32 -c 2 -a 0 -i 28 -k RTR 
- -t 12.091255787 -s 14 -d -1 -p message -e 32 -c 2 -a 0 -i 28 -k RTR
h -t 12.091255787 -s 14 -d -1 -p message -e 32 -c 2 -a 0 -i 28 -k RTR
+ -t 12.091330787 -s 14 -d -1 -p message -e 90 -c 2 -a 0 -i 28 -k MAC 
- -t 12.091330787 -s 14 -d -1 -p message -e 90 -c 2 -a 0 -i 28 -k MAC
h -t 12.091330787 -s 14 -d -1 -p message -e 90 -c 2 -a 0 -i 28 -k MAC
r -t 12.092051188 -s 11 -d -1 -p message -e 32 -c 2 -a 0 -i 28 -k MAC
r -t 12.092051368 -s 15 -d -1 -p message -e 32 -c 2 -a 0 -i 28 -k MAC
r -t 12.092051440 -s 6 -d -1 -p message -e 32 -c 2 -a 0 -i 28 -k MAC
r -t 12.092051591 -s 16 -d -1 -p message -e 32 -c 2 -a 0 -i 28 -k MAC
r -t 12.092076188 -s 11 -d -1 -p message -e 32 -c 2 -a 0 -i 28 -k RTR
r -t 12.092076368 -s 15 -d -1 -p message -e 32 -c 2 -a 0 -i 28 -k RTR
r -t 12.092076440 -s 6 -d -1 -p message -e 32 -c 2 -a 0 -i 28 -k RTR
r -t 12.092076591 -s 16 -d -1 -p message -e 32 -c 2 -a 0 -i 28 -k RTR