s -t 0.029350710 -Hs 0 -Hd -1 -Ni 0 -Nx 179.00 -Ny 698.00 -Nz 0.00 -Ne 50.000000 -Nl RTR -Nw --- -Ma 0 -Md 0 -Ms 0 -Mt 0 -Is 0.255 -Id -1.255 -It message -Il 32 -If 0 -Ii 0 -Iv 32 
s -t 0.029625710 -Hs 0 -Hd -1 -Ni 0 -Nx 179.00 -Ny 698.00 -Nz 0.00 -Ne 50.000000 -Nl MAC -Nw --- -Ma 0 -Md ffffffff -Ms 0 -Mt 800 -Is 0.255 -Id -1.255 -It message -Il 90 -If 0 -Ii 0 -Iv 32 
N -t 0.029626 -n 3 -e 49.981792
N -t 0.029626 -n 1 -e 49.981792
N -t 0.029626 -n 2 -e 49.981792
N -t 0.029627 -n 4 -e 49.981792
N -t 0.029627 -n 5 -e 49.981792
N -t 0.029627 -n 6 -e 49.981792
N -t 0.029627 -n 7 -e 49.981792
N -t 0.029627 -n 8 -e 49.981792
N -t 0.029627 -n 10 -e 49.981792
N -t 0.029627 -n 9 -e 49.981792
N -t 0.029627 -n 15 -e 49.981792
N -t 0.029627 -n 13 -e 49.981792
N -t 0.029627 -n 12 -e 49.981792
N -t 0.029627 -n 11 -e 49.981792
r -t 0.030346117 -Hs 3 -Hd -1 -Ni 3 -Nx 179.00 -Ny 576.00 -Nz 0.00 -Ne 49.981792 -Nl MAC -Nw --- -Ma 0 -Md ffffffff -Ms 0 -Mt 800 -Is 0.255 -Id -1.255 -It message -Il 32 -If 0 -Ii 0 -Iv 32 
r -t 0.030346150 -Hs 1 -Hd -1 -Ni 1 -Nx 311.00 -Ny 698.00 -Nz 0.00 -Ne 49.981792 -Nl MAC -Nw --- -Ma 0 -Md ffffffff -Ms 0 -Mt 800 -Is 0.255 -Id -1.255 -It message -Il 32 -If 0 -Ii 0 -Iv 32 
r -t 0.030346308 -Hs 2 -Hd -1 -Ni 2 -Nx 314.00 -Ny 580.00 -Nz 0.00 -Ne 49.981792 -Nl MAC -Nw --- -Ma 0 -Md ffffffff -Ms 0 -Mt 800 -Is 0.255 -Id -1.255 -It message -Il 32 -If 0 -Ii 0 -Iv 32 
r -t 0.030371117 -Hs 3 -Hd -1 -Ni 3 -Nx 179.00 -Ny 576.00 -Nz 0.00 -Ne 49.981792 -Nl RTR -Nw --- -Ma 0 -Md ffffffff -Ms 0 -Mt 800 -Is 0.255 -Id -1.255 -It message -Il 32 -If 0 -Ii 0 -Iv 32 
r -t 0.030371150 -Hs 1 -Hd -1 -Ni 1 -Nx 311.00 -Ny 698.00 -Nz 0.00 -Ne 49.981792 -Nl RTR -Nw --- -Ma 0 -Md ffffffff -Ms 0 -Mt 800 -Is 0.255 -Id -1.255 -It message -Il 32 -If 0 -Ii 0 -Iv 32 
r -t 0.030371308 -Hs 2 -Hd -1 -Ni 2 -Nx 314.00 -Ny 580.00 -Nz 0.00 -Ne 49.981792 -Nl RTR -Nw --- -Ma 0 -Md ffffffff -Ms 0 -Mt 800 -Is 0.255 -Id -1.255 -It message -Il 32 -If 0 -Ii 0 -Iv 32 
s -t 0.089675972 -Hs 11 -Hd -1 -Ni 11 -Nx 671.00 -Ny 487.00 -Nz 0.00 -Ne 49.981792 -Nl RTR -Nw --- -Ma 0 -Md 0 -Ms 0 -Mt 0 -Is 11.255 -Id -1.255 -It message -Il 32 -If 0 -Ii 1 -Iv 32 
s -t 0.090190972 -Hs 11 -Hd -1 -Ni 11 -Nx 671.00 -Ny 487.00 -Nz 0.00 -Ne 49.981792 -Nl MAC -Nw --- -Ma 0 -Md ffffffff -Ms b -Mt 800 -Is 11.255 -Id -1.255 -It message -Il 90 -If 0 -Ii 1 -Iv 32 
N -t 0.090191 -n 14 -e 49.945453
N -t 0.090191 -n 9 -e 49.945453
N -t 0.090191 -n 12 -e 49.945453
N -t 0.090192 -n 8 -e 49.945453
N -t 0.090192 -n 16 -e 49.945453
N -t 0.090192 -n 15 -e 49.945453
N -t 0.090192 -n 6 -e 49.945453
N -t 0.090192 -n 13 -e 49.945453
N -t 0.090192 -n 7 -e 49.945453
N -t 0.090192 -n 5 -e 49.945453
N -t 0.090192 -n 2 -e 49.945453
N -t 0.090192 -n 10 -e 49.945453
N -t 0.090192 -n 1 -e 49.945453
N -t 0.090193 -n 4 -e 49.945452
N -t 0.090193 -n 3 -e 49.945452
N -t 0.090193 -n 0 -e 49.945236
r -t 0.090911373 -Hs 14 -Hd -1 -Ni 14 -Nx 688.00 -Ny 368.00 -Nz 0.00 -Ne 49.945453 -Nl MAC -Nw --- -Ma 0 -Md ffffffff -Ms b -Mt 800 -Is 11.255 -Id -1.255 -It message -Il 32 -If 0 -Ii 1 -Iv 32 
r -t 0.090911479 -Hs 9 -Hd -1 -Ni 9 -Nx 526.00 -Ny 441.00 -Nz 0.00 -Ne 49.945453 -Nl MAC -Nw --- -Ma 0 -Md ffffffff -Ms b -Mt 800 -Is 11.255 -Id -1.255 -It message -Il 32 -If 0 -Ii 1 -Iv 32 
r -t 0.090911497 -Hs 12 -Hd -1 -Ni 12 -Nx 708.00 -Ny 640.00 -Nz 0.00 -Ne 49.945453 -Nl MAC -Nw --- -Ma 0 -Md ffffffff -Ms b -Mt 800 -Is 11.255 -Id -1.255 -It message -Il 32 -If 0 -Ii 1 -Iv 32 
r -t 0.090911507 -Hs 8 -Hd -1 -Ni 8 -Nx 548.00 -Ny 590.00 -Nz 0.00 -Ne 49.945453 -Nl MAC -Nw --- -Ma 0 -Md ffffffff -Ms b -Mt 800 -Is 11.255 -Id -1.255 -It message -Il 32 -If 0 -Ii 1 -Iv 32 
r -t 0.090911664 -Hs 16 -Hd -1 -Ni 16 -Nx 876.00 -Ny 519.00 -Nz 0.00 -Ne 49.945453 -Nl MAC -Nw --- -Ma 0 -Md ffffffff -Ms b -Mt 800 -Is 11.255 -Id -1.255 -It message -Il 32 -If 0 -Ii 1 -Iv 32 
r -t 0.090911682 -Hs 15 -Hd -1 -Ni 15 -Nx 516.00 -Ny 341.00 -Nz 0.00 -Ne 49.945453 -Nl MAC -Nw --- -Ma 0 -Md ffffffff -Ms b -Mt 800 -Is 11.255 -Id -1.255 -It message -Il 32 -If 0 -Ii 1 -Iv 32 
r -t 0.090911731 -Hs 6 -Hd -1 -Ni 6 -Nx 458.00 -Ny 567.00 -Nz 0.00 -Ne 49.945453 -Nl MAC -Nw --- -Ma 0 -Md ffffffff -Ms b -Mt 800 -Is 11.255 -Id -1.255 -It message -Il 32 -If 0 -Ii 1 -Iv 32 
r -t 0.090936373 -Hs 14 -Hd -1 -Ni 14 -Nx 688.00 -Ny 368.00 -Nz 0.00 -Ne 49.945453 -Nl RTR -Nw --- -Ma 0 -Md ffffffff -Ms b -Mt 800 -Is 11.255 -Id -1.255 -It message -Il 32 -If 0 -Ii 1 -Iv 32 
r -t 0.090936479 -Hs 9 -Hd -1 -Ni 9 -Nx 526.00 -Ny 441.00 -Nz 0.00 -Ne 49.945453 -Nl RTR -Nw --- -Ma 0 -Md ffffffff -Ms b -Mt 800 -Is 11.255 -Id -1.255 -It message -Il 32 -If 0 -Ii 1 -Iv 32 
r -t 0.090936497 -Hs 12 -Hd -1 -Ni 12 -Nx 708.00 -Ny 640.00 -Nz 0.00 -Ne 49.945453 -Nl RTR -Nw --- -Ma 0 -Md ffffffff -Ms b -Mt 800 -Is 11.255 -Id -1.255 -It message -Il 32 -If 0 -Ii 1 -Iv 32 
r -t 0.090936507 -Hs 8 -Hd -1 -Ni 8 -Nx 548.00 -Ny 590.00 -Nz 0.00 -Ne 49.945453 -Nl RTR -Nw --- -Ma 0 -Md ffffffff -Ms b -Mt 800 -Is 11.255 -Id -1.255 -It message -Il 32 -If 0 -Ii 1 -Iv 32 
r -t 0.090936664 -Hs 16 -Hd -1 -Ni 16 -Nx 876.00 -Ny 519.00 -Nz 0.00 -Ne 49.945453 -Nl RTR -Nw --- -Ma 0 -Md ffffffff -Ms b -Mt 800 -Is 11.255 -Id -1.255 -It message -Il 32 -If 0 -Ii 1 -Iv 32 
r -t 0.090936682 -Hs 15 -Hd -1 -Ni 15 -Nx 516.00 -Ny 341.00 -Nz 0.00 -Ne 49.945453 -Nl RTR -Nw --- -Ma 0 -Md ffffffff -Ms b -Mt 800 -Is 11.255 -Id -1.255 -It message -Il 32 -If 0 -Ii 1 -Iv 32 
r -t 0.090936731 -Hs 6 -Hd -1 -Ni 6 -Nx 458.00 -Ny 567.00 -Nz 0.00 -Ne 49.945453 -Nl RTR -Nw --- -Ma 0 -Md ffffffff -Ms b -Mt 800 -Is 11.255 -Id -1.255 -It message -Il 32 -If 0 -Ii 1 -Iv 32 
s -t 0.184866015 -Hs 1 -Hd -1 -Ni 1 -Nx 311.00 -Ny 698.00 -Nz 0.00 -Ne 49.945453 -Nl RTR -Nw --- -Ma 0 -Md 0 -Ms 0 -Mt 0 -Is 1.255 -Id -1.255 -It message -Il 32 -If 0 -Ii 2 -Iv 32 
s -t 0.185481015 -Hs 1 -Hd -1 -Ni 1 -Nx 311.00 -Ny 698.00 -Nz 0.00 -Ne 49.945453 -Nl MAC -Nw --- -Ma 0 -Md ffffffff -Ms 1 -Mt 800 -Is 1.255 -Id -1.255 -It message -Il 90 -If 0 -Ii 2 -Iv 32 
N -t 0.185481 -n 2 -e 49.888279
N -t 0.185481 -n 0 -e 49.888063
N -t 0.185482 -n 3 -e 49.888279
N -t 0.185482 -n 7 -e 49.888279
N -t 0.185482 -n 6 -e 49.888279
N -t 0.185482 -n 5 -e 49.888279
N -t 0.185482 -n 8 -e 49.888279
N -t 0.185482 -n 4 -e 49.888279
N -t 0.185482 -n 9 -e 49.888279
N -t 0.185482 -n 10 -e 49.888279
N -t 0.185482 -n 13 -e 49.888279
N -t 0.185482 -n 12 -e 49.888279
N -t 0.185482 -n 15 -e 49.888279
N -t 0.185482 -n 11 -e 49.888063
N -t 0.185483 -n 14 -e 49.888278
r -t 0.186201409 -Hs 2 -Hd -1 -Ni 2 -Nx 314.00 -Ny 580.00 -Nz 0.00 -Ne 49.888279 -Nl MAC -Nw --- -Ma 0 -Md ffffffff -Ms 1 -Mt 800 -Is 1.255 -Id -1.255 -It message -Il 32 -If 0 -Ii 2 -Iv 32 
r -t 0.186201455 -Hs 0 -Hd -1 -Ni 0 -Nx 179.00 -Ny 698.00 -Nz 0.00 -Ne 49.888063 -Nl MAC -Nw --- -Ma 0 -Md ffffffff -Ms 1 -Mt 800 -Is 1.255 -Id -1.255 -It message -Il 32 -If 0 -Ii 2 -Iv 32 
r -t 0.186201615 -Hs 3 -Hd -1 -Ni 3 -Nx 179.00 -Ny 576.00 -Nz 0.00 -Ne 49.888279 -Nl MAC -Nw --- -Ma 0 -Md ffffffff -Ms 1 -Mt 800 -Is 1.255 -Id -1.255 -It message -Il 32 -If 0 -Ii 2 -Iv 32 
r -t 0.186201616 -Hs 7 -Hd -1 -Ni 7 -Nx 491.00 -Ny 691.00 -Nz 0.00 -Ne 49.888279 -Nl MAC -Nw --- -Ma 0 -Md ffffffff -Ms 1 -Mt 800 -Is 1.255 -Id -1.255 -It message -Il 32 -If 0 -Ii 2 -Iv 32 
r -t 0.186201672 -Hs 6 -Hd -1 -Ni 6 -Nx 458.00 -Ny 567.00 -Nz 0.00 -Ne 49.888279 -Nl MAC -Nw --- -Ma 0 -Md ffffffff -Ms 1 -Mt 800 -Is 1.255 -Id -1.255 -It message -Il 32 -If 0 -Ii 2 -Iv 32 
r -t 0.186226409 -Hs 2 -Hd -1 -Ni 2 -Nx 314.00 -Ny 580.00 -Nz 0.00 -Ne 49.888279 -Nl RTR -Nw --- -Ma 0 -Md ffffffff -Ms 1 -Mt 800 -Is 1.255 -Id -1.255 -It message -Il 32 -If 0 -Ii 2 -Iv 32 
r -t 0.186226455 -Hs 0 -Hd -1 -Ni 0 -Nx 179.00 -Ny 698.00 -Nz 0.00 -Ne 49.888063 -Nl RTR -Nw --- -Ma 0 -Md ffffffff -Ms 1 -Mt 800 -Is 1.255 -Id -1.255 -It message -Il 32 -If 0 -Ii 2 -Iv 32 
r -t 0.186226615 -Hs 3 -Hd -1 -Ni 3 -Nx 179.00 -Ny 576.00 -Nz 0.00 -Ne 49.888279 -Nl RTR -Nw --- -Ma 0 -Md ffffffff -Ms 1 -Mt 800 -Is 1.255 -Id -1.255 -It message -Il 32 -If 0 -Ii 2 -Iv 32 
r -t 0.186226616 -Hs 7 -Hd -1 -Ni 7 -Nx 491.00 -Ny 691.00 -Nz 0.00 -Ne 49.888279 -Nl RTR -Nw --- -Ma 0 -Md ffffffff -Ms 1 -Mt 800 -Is 1.255 -Id -1.255 -It message -Il 32 -If 0 -Ii 2 -Iv 32 
r -t 0.186226672 -Hs 6 -Hd -1 -Ni 6 -Nx 458.00 -Ny 567.00 -Nz 0.00 -Ne 49.888279 -Nl RTR -Nw --- -Ma 0 -Md ffffffff -Ms 1 -Mt 800 -Is 1.255 -Id -1.255 -It message -Il 32 -If 0 -Ii 2 -Iv 32 
s -t 0.236127563 -Hs 13 -Hd -1 -Ni 13 -Nx 683.00 -Ny 748.00 -Nz 0.00 -Ne 49.888279 -Nl RTR -Nw --- -Ma 0 -Md 0 -Ms 0 -Mt 0 -Is 13.255 -Id -1.255 -It message -Il 32 -If 0 -Ii 3 -Iv 32 
s -t 0.236562563 -Hs 13 -Hd -1 -Ni 13 -Nx 683.00 -Ny 748.00 -Nz 0.00 -Ne 49.888279 -Nl MAC -Nw --- -Ma 0 -Md ffffffff -Ms d -Mt 800 -Is 13.255 -Id -1.255 -It message -Il 90 -If 0 -Ii 3 -Iv 32 
N -t 0.236563 -n 12 -e 49.857630
N -t 0.236563 -n 7 -e 49.857630
N -t 0.236563 -n 8 -e 49.857630
N -t 0.236563 -n 11 -e 49.857414
N -t 0.236564 -n 6 -e 49.857630
N -t 0.236564 -n 16 -e 49.857630
N -t 0.236564 -n 9 -e 49.857630
N -t 0.236564 -n 1 -e 49.857414
N -t 0.236564 -n 14 -e 49.857630
N -t 0.236564 -n 2 -e 49.857630
N -t 0.236564 -n 15 -e 49.857630
N -t 0.236564 -n 5 -e 49.857630
N -t 0.236564 -n 0 -e 49.857413
N -t 0.236564 -n 3 -e 49.857629
N -t 0.236564 -n 10 -e 49.857629
r -t 0.237282932 -Hs 12 -Hd -1 -Ni 12 -Nx 708.00 -Ny 640.00 -Nz 0.00 -Ne 49.857630 -Nl MAC -Nw --- -Ma 0 -Md ffffffff -Ms d -Mt 800 -Is 13.255 -Id -1.255 -It message -Il 32 -If 0 -Ii 3 -Iv 32 
r -t 0.237283230 -Hs 7 -Hd -1 -Ni 7 -Nx 491.00 -Ny 691.00 -Nz 0.00 -Ne 49.857630 -Nl MAC -Nw --- -Ma 0 -Md ffffffff -Ms d -Mt 800 -Is 13.255 -Id -1.255 -It message -Il 32 -If 0 -Ii 3 -Iv 32 
r -t 0.237283255 -Hs 8 -Hd -1 -Ni 8 -Nx 548.00 -Ny 590.00 -Nz 0.00 -Ne 49.857630 -Nl MAC -Nw --- -Ma 0 -Md ffffffff -Ms d -Mt 800 -Is 13.255 -Id -1.255 -It message -Il 32 -If 0 -Ii 3 -Iv 32 
r -t 0.237307932 -Hs 12 -Hd -1 -Ni 12 -Nx 708.00 -Ny 640.00 -Nz 0.00 -Ne 49.857630 -Nl RTR -Nw --- -Ma 0 -Md ffffffff -Ms d -Mt 800 -Is 13.255 -Id -1.255 -It message -Il 32 -If 0 -Ii 3 -Iv 32 
r -t 0.237308230 -Hs 7 -Hd -1 -Ni 7 -Nx 491.00 -Ny 691.00 -Nz 0.00 -Ne 49.857630 -Nl RTR -Nw --- -Ma 0 -Md ffffffff -Ms d -Mt 800 -Is 13.255 -Id -1.255 -It message -Il 32 -If 0 -Ii 3 -Iv 32 
r -t 0.237308255 -Hs 8 -Hd -1 -Ni 8 -Nx 548.00 -Ny 590.00 -Nz 0.00 -Ne 49.857630 -Nl RTR -Nw --- -Ma 0 -Md ffffffff -Ms d -Mt 800 -Is 13.255 -Id -1.255 -It message -Il 32 -If 0 -Ii 3 -Iv 32 
s -t 0.332346004 -Hs 10 -Hd -1 -Ni 10 -Nx 324.00 -Ny 333.00 -Nz 0.00 -Ne 49.857629 -Nl RTR -Nw --- -Ma 0 -Md 0 -Ms 0 -Mt 0 -Is 10.255 -Id -1.255 -It message -Il 32 -If 0 -Ii 4 -Iv 32 
s -t 0.332621004 -Hs 10 -Hd -1 -Ni 10 -Nx 324.00 -Ny 333.00 -Nz 0.00 -Ne 49.857629 -Nl MAC -Nw --- -Ma 0 -Md ffffffff -Ms a -Mt 800 -Is 10.255 -Id -1.255 -It message -Il 90 -If 0 -Ii 4 -Iv 32 
N -t 0.332621 -n 5 -e 49.799995
N -t 0.332622 -n 4 -e 49.799995
N -t 0.332622 -n 15 -e 49.799995
N -t 0.332622 -n 9 -e 49.799995
N -t 0.332622 -n 2 -e 49.799995
N -t 0.332622 -n 6 -e 49.799995
N -t 0.332622 -n 3 -e 49.799995
N -t 0.332622 -n 8 -e 49.799995
N -t 0.332622 -n 1 -e 49.799779
N -t 0.332622 -n 14 -e 49.799995
N -t 0.332622 -n 11 -e 49.799779
N -t 0.332622 -n 0 -e 49.799779
N -t 0.332622 -n 7 -e 49.799995
N -t 0.332623 -n 12 -e 49.799994
N -t 0.332623 -n 13 -e 49.799778
r -t 0.333341394 -Hs 5 -Hd -1 -Ni 5 -Nx 339.00 -Ny 449.00 -Nz 0.00 -Ne 49.799995 -Nl MAC -Nw --- -Ma 0 -Md ffffffff -Ms a -Mt 800 -Is 10.255 -Id -1.255 -It message -Il 32 -If 0 -Ii 4 -Iv 32 
r -t 0.333341580 -Hs 4 -Hd -1 -Ni 4 -Nx 177.00 -Ny 424.00 -Nz 0.00 -Ne 49.799995 -Nl MAC -Nw --- -Ma 0 -Md ffffffff -Ms a -Mt 800 -Is 10.255 -Id -1.255 -It message -Il 32 -If 0 -Ii 4 -Iv 32 
r -t 0.333341645 -Hs 15 -Hd -1 -Ni 15 -Nx 516.00 -Ny 341.00 -Nz 0.00 -Ne 49.799995 -Nl MAC -Nw --- -Ma 0 -Md ffffffff -Ms a -Mt 800 -Is 10.255 -Id -1.255 -It message -Il 32 -If 0 -Ii 4 -Iv 32 
r -t 0.333341768 -Hs 9 -Hd -1 -Ni 9 -Nx 526.00 -Ny 441.00 -Nz 0.00 -Ne 49.799995 -Nl MAC -Nw --- -Ma 0 -Md ffffffff -Ms a -Mt 800 -Is 10.255 -Id -1.255 -It message -Il 32 -If 0 -Ii 4 -Iv 32 
r -t 0.333341828 -Hs 2 -Hd -1 -Ni 2 -Nx 314.00 -Ny 580.00 -Nz 0.00 -Ne 49.799995 -Nl MAC -Nw --- -Ma 0 -Md ffffffff -Ms a -Mt 800 -Is 10.255 -Id -1.255 -It message -Il 32 -If 0 -Ii 4 -Iv 32 
r -t 0.333366394 -Hs 5 -Hd -1 -Ni 5 -Nx 339.00 -Ny 449.00 -Nz 0.00 -Ne 49.799995 -Nl RTR -Nw --- -Ma 0 -Md ffffffff -Ms a -Mt 800 -Is 10.255 -Id -1.255 -It message -Il 32 -If 0 -Ii 4 -Iv 32 
r -t 0.333366580 -Hs 4 -Hd -1 -Ni 4 -Nx 177.00 -Ny 424.00 -Nz 0.00 -Ne 49.799995 -Nl RTR -Nw --- -Ma 0 -Md ffffffff -Ms a -Mt 800 -Is 10.255 -Id -1.255 -It message -Il 32 -If 0 -Ii 4 -Iv 32 
r -t 0.333366645 -Hs 15 -Hd -1 -Ni 15 -Nx 516.00 -Ny 341.00 -Nz 0.00 -Ne 49.799995 -Nl RTR -Nw --- -Ma 0 -Md ffffffff -Ms a -Mt 800 -Is 10.255 -Id -1.255 -It message -Il 32 -If 0 -Ii 4 -Iv 32 
r -t 0.333366768 -Hs 9 -Hd -1 -Ni 9 -Nx 526.00 -Ny 441.00 -Nz 0.00 -Ne 49.799995 -Nl RTR -Nw --- -Ma 0 -Md ffffffff -Ms a -Mt 800 -Is 10.255 -Id -1.255 -It message -Il 32 -If 0 -Ii 4 -Iv 32 
r -t 0.333366828 -Hs 2 -Hd -1 -Ni 2 -Nx 314.00 -Ny 580.00 -Nz 0.00 -Ne 49.799995 -Nl RTR -Nw --- -Ma 0 -Md ffffffff -Ms a -Mt 800 -Is 10.255 -Id -1.255 -It message -Il 32 -If 0 -Ii 4 -Iv 32 
s -t 0.358484943 -Hs 16 -Hd -1 -Ni 16 -Nx 876.00 -Ny 519.00 -Nz 0.00 -Ne 49.857630 -Nl RTR -Nw --- -Ma 0 -Md 0 -Ms 0 -Mt 0 -Is 16.255 -Id -1.255 -It message -Il 32 -If 0 -Ii 5 -Iv 32 
s -t 0.358759943 -Hs 16 -Hd -1 -Ni 16 -Nx 876.00 -Ny 519.00 -Nz 0.00 -Ne 49.857630 -Nl MAC -Nw --- -Ma 0 -Md ffffffff -Ms 10 -Mt 800 -Is 16.255 -Id -1.255 -It message -Il 90 -If 0 -Ii 5 -Iv 32 
N -t 0.358761 -n 12 -e 49.784312
N -t 0.358761 -n 11 -e 49.784096
N -t 0.358761 -n 14 -e 49.784312
N -t 0.358761 -n 13 -e 49.784095
N -t 0.358761 -n 8 -e 49.784311
N -t 0.358761 -n 9 -e 49.784311
N -t 0.358761 -n 15 -e 49.784311
N -t 0.358761 -n 6 -e 49.784311
N -t 0.358761 -n 7 -e 49.784311
N -t 0.358762 -n 5 -e 49.784311
r -t 0.359480633 -Hs 12 -Hd -1 -Ni 12 -Nx 708.00 -Ny 640.00 -Nz 0.00 -Ne 49.784312 -Nl MAC -Nw --- -Ma 0 -Md ffffffff -Ms 10 -Mt 800 -Is 16.255 -Id -1.255 -It message -Il 32 -If 0 -Ii 5 -Iv 32 
r -t 0.359480635 -Hs 11 -Hd -1 -Ni 11 -Nx 671.00 -Ny 487.00 -Nz 0.00 -Ne 49.784096 -Nl MAC -Nw --- -Ma 0 -Md ffffffff -Ms 10 -Mt 800 -Is 16.255 -Id -1.255 -It message -Il 32 -If 0 -Ii 5 -Iv 32 
r -t 0.359480747 -Hs 14 -Hd -1 -Ni 14 -Nx 688.00 -Ny 368.00 -Nz 0.00 -Ne 49.784312 -Nl MAC -Nw --- -Ma 0 -Md ffffffff -Ms 10 -Mt 800 -Is 16.255 -Id -1.255 -It message -Il 32 -If 0 -Ii 5 -Iv 32 
r -t 0.359505633 -Hs 12 -Hd -1 -Ni 12 -Nx 708.00 -Ny 640.00 -Nz 0.00 -Ne 49.784312 -Nl RTR -Nw --- -Ma 0 -Md ffffffff -Ms 10 -Mt 800 -Is 16.255 -Id -1.255 -It message -Il 32 -If 0 -Ii 5 -Iv 32 
r -t 0.359505635 -Hs 11 -Hd -1 -Ni 11 -Nx 671.00 -Ny 487.00 -Nz 0.00 -Ne 49.784096 -Nl RTR -Nw --- -Ma 0 -Md ffffffff -Ms 10 -Mt 800 -Is 16.255 -Id -1.255 -It message -Il 32 -If 0 -Ii 5 -Iv 32 
r -t 0.359505747 -Hs 14 -Hd -1 -Ni 14 -Nx 688.00 -Ny 368.00 -Nz 0.00 -Ne 49.784312 -Nl RTR -Nw --- -Ma 0 -Md ffffffff -Ms 10 -Mt 800 -Is 16.255 -Id -1.255 -It message -Il 32 -If 0 -Ii 5 -Iv 32 
s -t 0.469787530 -Hs 6 -Hd -1 -Ni 6 -Nx 458.00 -Ny 567.00 -Nz 0.00 -Ne 49.784311 -Nl RTR -Nw --- -Ma 0 -Md 0 -Ms 0 -Mt 0 -Is 6.255 -Id -1.255 -It message -Il 32 -If 0 -Ii 6 -Iv 32 
s -t 0.470202530 -Hs 6 -Hd -1 -Ni 6 -Nx 458.00 -Ny 567.00 -Nz 0.00 -Ne 49.784311 -Nl MAC -Nw --- -Ma 0 -Md ffffffff -Ms 6 -Mt 800 -Is 6.255 -Id -1.255 -It message -Il 90 -If 0 -Ii 6 -Iv 32 
N -t 0.470203 -n 8 -e 49.717446
N -t 0.470203 -n 7 -e 49.717446
N -t 0.470203 -n 9 -e 49.717446
N -t 0.470203 -n 2 -e 49.717446
N -t 0.470203 -n 5 -e 49.717446
N -t 0.470203 -n 1 -e 49.717230
N -t 0.470203 -n 11 -e 49.717230
N -t 0.470203 -n 15 -e 49.717446
N -t 0.470203 -n 12 -e 49.717446
N -t 0.470203 -n 10 -e 49.717230
N -t 0.470203 -n 3 -e 49.717446
N -t 0.470203 -n 13 -e 49.717230
N -t 0.470204 -n 14 -e 49.717446
N -t 0.470204 -n 0 -e 49.717230
N -t 0.470204 -n 4 -e 49.717446
N -t 0.470204 -n 16 -e 49.717230
r -t 0.470922840 -Hs 8 -Hd -1 -Ni 8 -Nx 548.00 -Ny 590.00 -Nz 0.00 -Ne 49.717446 -Nl MAC -Nw --- -Ma 0 -Md ffffffff -Ms 6 -Mt 800 -Is 6.255 -Id -1.255 -It message -Il 32 -If 0 -Ii 6 -Iv 32 
r -t 0.470922958 -Hs 7 -Hd -1 -Ni 7 -Nx 491.00 -Ny 691.00 -Nz 0.00 -Ne 49.717446 -Nl MAC -Nw --- -Ma 0 -Md ffffffff -Ms 6 -Mt 800 -Is 6.255 -Id -1.255 -It message -Il 32 -If 0 -Ii 6 -Iv 32 
r -t 0.470923007 -Hs 9 -Hd -1 -Ni 9 -Nx 526.00 -Ny 441.00 -Nz 0.00 -Ne 49.717446 -Nl MAC -Nw --- -Ma 0 -Md ffffffff -Ms 6 -Mt 800 -Is 6.255 -Id -1.255 -It message -Il 32 -If 0 -Ii 6 -Iv 32 
r -t 0.470923012 -Hs 2 -Hd -1 -Ni 2 -Nx 314.00 -Ny 580.00 -Nz 0.00 -Ne 49.717446 -Nl MAC -Nw --- -Ma 0 -Md ffffffff -Ms 6 -Mt 800 -Is 6.255 -Id -1.255 -It message -Il 32 -If 0 -Ii 6 -Iv 32 
r -t 0.470923089 -Hs 5 -Hd -1 -Ni 5 -Nx 339.00 -Ny 449.00 -Nz 0.00 -Ne 49.717446 -Nl MAC -Nw --- -Ma 0 -Md ffffffff -Ms 6 -Mt 800 -Is 6.255 -Id -1.255 -It message -Il 32 -If 0 -Ii 6 -Iv 32 
r -t 0.470923186 -Hs 1 -Hd -1 -Ni 1 -Nx 311.00 -Ny 698.00 -Nz 0.00 -Ne 49.717230 -Nl MAC -Nw --- -Ma 0 -Md ffffffff -Ms 6 -Mt 800 -Is 6.255 -Id -1.255 -It message -Il 32 -If 0 -Ii 6 -Iv 32 
r -t 0.470923288 -Hs 11 -Hd -1 -Ni 11 -Nx 671.00 -Ny 487.00 -Nz 0.00 -Ne 49.717230 -Nl MAC -Nw --- -Ma 0 -Md ffffffff -Ms 6 -Mt 800 -Is 6.255 -Id -1.255 -It message -Il 32 -If 0 -Ii 6 -Iv 32 
r -t 0.470923308 -Hs 15 -Hd -1 -Ni 15 -Nx 516.00 -Ny 341.00 -Nz 0.00 -Ne 49.717446 -Nl MAC -Nw --- -Ma 0 -Md ffffffff -Ms 6 -Mt 800 -Is 6.255 -Id -1.255 -It message -Il 32 -If 0 -Ii 6 -Iv 32 
r -t 0.470947840 -Hs 8 -Hd -1 -Ni 8 -Nx 548.00 -Ny 590.00 -Nz 0.00 -Ne 49.717446 -Nl RTR -Nw --- -Ma 0 -Md ffffffff -Ms 6 -Mt 800 -Is 6.255 -Id -1.255 -It message -Il 32 -If 0 -Ii 6 -Iv 32 
r -t 0.470947958 -Hs 7 -Hd -1 -Ni 7 -Nx 491.00 -Ny 691.00 -Nz 0.00 -Ne 49.717446 -Nl RTR -Nw --- -Ma 0 -Md ffffffff -Ms 6 -Mt 800 -Is 6.255 -Id -1.255 -It message -Il 32 -If 0 -Ii 6 -Iv 32 
r -t 0.470948007 -Hs 9 -Hd -1 -Ni 9 -Nx 526.00 -Ny 441.00 -Nz 0.00 -Ne 49.717446 -Nl RTR -Nw --- -Ma 0 -Md ffffffff -Ms 6 -Mt 800 -Is 6.255 -Id -1.255 -It message -Il 32 -If 0 -Ii 6 -Iv 32 
r -t 0.470948012 -Hs 2 -Hd -1 -Ni 2 -Nx 314.00 -Ny 580.00 -Nz 0.00 -Ne 49.717446 -Nl RTR -Nw --- -Ma 0 -Md ffffffff -Ms 6 -Mt 800 -Is 6.255 -Id -1.255 -It message -Il 32 -If 0 -Ii 6 -Iv 32 
r -t 0.470948089 -Hs 5 -Hd -1 -Ni 5 -Nx 339.00 -Ny 449.00 -Nz 0.00 -Ne 49.717446 -Nl RTR -Nw --- -Ma 0 -Md ffffffff -Ms 6 -Mt 800 -Is 6.255 -Id -1.255 -It message -Il 32 -If 0 -Ii 6 -Iv 32 
r -t 0.470948186 -Hs 1 -Hd -1 -Ni 1 -Nx 311.00 -Ny 698.00 -Nz 0.00 -Ne 49.717230 -Nl RTR -Nw --- -Ma 0 -Md ffffffff -Ms 6 -Mt 800 -Is 6.255 -Id -1.255 -It message -Il 32 -If 0 -Ii 6 -Iv 32 
r -t 0.470948288 -Hs 11 -Hd -1 -Ni 11 -Nx 671.00 -Ny 487.00 -Nz 0.00 -Ne 49.717230 -Nl RTR -Nw --- -Ma 0 -Md ffffffff -Ms 6 -Mt 800 -Is 6.255 -Id -1.255 -It message -Il 32 -If 0 -Ii 6 -Iv 32 
r -t 0.470948308 -Hs 15 -Hd -1 -Ni 15 -Nx 516.00 -Ny 341.00 -Nz 0.00 -Ne 49.717446 -Nl RTR -Nw --- -Ma 0 -Md ffffffff -Ms 6 -Mt 800 -Is 6.255 -Id -1.255 -It message -Il 32 -If 0 -Ii 6 -Iv 32 
s -t 0.619389151 -Hs 8 -Hd -1 -Ni 8 -Nx 548.00 -Ny 590.00 -Nz 0.00 -Ne 49.717446 -Nl RTR -Nw --- -Ma 0 -Md 0 -Ms 0 -Mt 0 -Is 8.255 -Id -1.255 -It message -Il 32 -If 0 -Ii 7 -Iv 32 
s -t 0.619744151 -Hs 8 -Hd -1 -Ni 8 -Nx 548.00 -Ny 590.00 -Nz 0.00 -Ne 49.717446 -Nl MAC -Nw --- -Ma 0 -Md ffffffff -Ms 8 -Mt 800 -Is 8.255 -Id -1.255 -It message -Il 90 -If 0 -Ii 7 -Iv 32 
N -t 0.619744 -n 6 -e 49.627505
N -t 0.619745 -n 7 -e 49.627721
N -t 0.619745 -n 9 -e 49.627721
N -t 0.619745 -n 11 -e 49.627505
N -t 0.619745 -n 12 -e 49.627721
N -t 0.619745 -n 13 -e 49.627505
N -t 0.619745 -n 2 -e 49.627721
N -t 0.619745 -n 15 -e 49.627721
N -t 0.619745 -n 5 -e 49.627721
N -t 0.619745 -n 1 -e 49.627505
N -t 0.619745 -n 14 -e 49.627721
N -t 0.619745 -n 16 -e 49.627505
N -t 0.619745 -n 10 -e 49.627505
N -t 0.619745 -n 3 -e 49.627721
N -t 0.619745 -n 0 -e 49.627505
N -t 0.619746 -n 4 -e 49.627721
r -t 0.620464460 -Hs 6 -Hd -1 -Ni 6 -Nx 458.00 -Ny 567.00 -Nz 0.00 -Ne 49.627505 -Nl MAC -Nw --- -Ma 0 -Md ffffffff -Ms 8 -Mt 800 -Is 8.255 -Id -1.255 -It message -Il 32 -If 0 -Ii 7 -Iv 32 
r -t 0.620464537 -Hs 7 -Hd -1 -Ni 7 -Nx 491.00 -Ny 691.00 -Nz 0.00 -Ne 49.627721 -Nl MAC -Nw --- -Ma 0 -Md ffffffff -Ms 8 -Mt 800 -Is 8.255 -Id -1.255 -It message -Il 32 -If 0 -Ii 7 -Iv 32 
r -t 0.620464653 -Hs 9 -Hd -1 -Ni 9 -Nx 526.00 -Ny 441.00 -Nz 0.00 -Ne 49.627721 -Nl MAC -Nw --- -Ma 0 -Md ffffffff -Ms 8 -Mt 800 -Is 8.255 -Id -1.255 -It message -Il 32 -If 0 -Ii 7 -Iv 32 
r -t 0.620464685 -Hs 11 -Hd -1 -Ni 11 -Nx 671.00 -Ny 487.00 -Nz 0.00 -Ne 49.627505 -Nl MAC -Nw --- -Ma 0 -Md ffffffff -Ms 8 -Mt 800 -Is 8.255 -Id -1.255 -It message -Il 32 -If 0 -Ii 7 -Iv 32 
r -t 0.620464709 -Hs 12 -Hd -1 -Ni 12 -Nx 708.00 -Ny 640.00 -Nz 0.00 -Ne 49.627721 -Nl MAC -Nw --- -Ma 0 -Md ffffffff -Ms 8 -Mt 800 -Is 8.255 -Id -1.255 -It message -Il 32 -If 0 -Ii 7 -Iv 32 
r -t 0.620464843 -Hs 13 -Hd -1 -Ni 13 -Nx 683.00 -Ny 748.00 -Nz 0.00 -Ne 49.627505 -Nl MAC -Nw --- -Ma 0 -Md ffffffff -Ms 8 -Mt 800 -Is 8.255 -Id -1.255 -It message -Il 32 -If 0 -Ii 7 -Iv 32 
r -t 0.620464931 -Hs 2 -Hd -1 -Ni 2 -Nx 314.00 -Ny 580.00 -Nz 0.00 -Ne 49.627721 -Nl MAC -Nw --- -Ma 0 -Md ffffffff -Ms 8 -Mt 800 -Is 8.255 -Id -1.255 -It message -Il 32 -If 0 -Ii 7 -Iv 32 
r -t 0.620489460 -Hs 6 -Hd -1 -Ni 6 -Nx 458.00 -Ny 567.00 -Nz 0.00 -Ne 49.627505 -Nl RTR -Nw --- -Ma 0 -Md ffffffff -Ms 8 -Mt 800 -Is 8.255 -Id -1.255 -It message -Il 32 -If 0 -Ii 7 -Iv 32 
r -t 0.620489537 -Hs 7 -Hd -1 -Ni 7 -Nx 491.00 -Ny 691.00 -Nz 0.00 -Ne 49.627721 -Nl RTR -Nw --- -Ma 0 -Md ffffffff -Ms 8 -Mt 800 -Is 8.255 -Id -1.255 -It message -Il 32 -If 0 -Ii 7 -Iv 32 
r -t 0.620489653 -Hs 9 -Hd -1 -Ni 9 -Nx 526.00 -Ny 441.00 -Nz 0.00 -Ne 49.627721 -Nl RTR -Nw --- -Ma 0 -Md ffffffff -Ms 8 -Mt 800 -Is 8.255 -Id -1.255 -It message -Il 32 -If 0 -Ii 7 -Iv 32 
r -t 0.620489685 -Hs 11 -Hd -1 -Ni 11 -Nx 671.00 -Ny 487.00 -Nz 0.00 -Ne 49.627505 -Nl RTR -Nw --- -Ma 0 -Md ffffffff -Ms 8 -Mt 800 -Is 8.255 -Id -1.255 -It message -Il 32 -If 0 -Ii 7 -Iv 32 
r -t 0.620489709 -Hs 12 -Hd -1 -Ni 12 -Nx 708.00 -Ny 640.00 -Nz 0.00 -Ne 49.627721 -Nl RTR -Nw --- -Ma 0 -Md ffffffff -Ms 8 -Mt 800 -Is 8.255 -Id -1.255 -It message -Il 32 -If 0 -Ii 7 -Iv 32 
r -t 0.620489843 -Hs 13 -Hd -1 -Ni 13 -Nx 683.00 -Ny 748.00 -Nz 0.00 -Ne 49.627505 -Nl RTR -Nw --- -Ma 0 -Md ffffffff -Ms 8 -Mt 800 -Is 8.255 -Id -1.255 -It message -Il 32 -If 0 -Ii 7 -Iv 32 
r -t 0.620489931 -Hs 2 -Hd -1 -Ni 2 -Nx 314.00 -Ny 580.00 -Nz 0.00 -Ne 49.627721 -Nl RTR -Nw --- -Ma 0 -Md ffffffff -Ms 8 -Mt 800 -Is 8.255 -Id -1.255 -It message -Il 32 -If 0 -Ii 7 -Iv 32 
s -t 0.631371763 -Hs 4 -Hd -1 -Ni 4 -Nx 177.00 -Ny 424.00 -Nz 0.00 -Ne 49.627721 -Nl RTR -Nw --- -Ma 0 -Md 0 -Ms 0 -Mt 0 -Is 4.255 -Id -1.255 -It message -Il 32 -If 0 -Ii 8 -Iv 32 
s -t 0.631766763 -Hs 4 -Hd -1 -Ni 4 -Nx 177.00 -Ny 424.00 -Nz 0.00 -Ne 49.627721 -Nl MAC -Nw --- -Ma 0 -Md ffffffff -Ms 4 -Mt 800 -Is 4.255 -Id -1.255 -It message -Il 90 -If 0 -Ii 8 -Iv 32 
N -t 0.631767 -n 3 -e 49.620508
N -t 0.631767 -n 5 -e 49.620508
N -t 0.631767 -n 10 -e 49.620292
N -t 0.631767 -n 2 -e 49.620508
N -t 0.631768 -n 0 -e 49.620291
N -t 0.631768 -n 1 -e 49.620291
N -t 0.631768 -n 6 -e 49.620291
N -t 0.631768 -n 15 -e 49.620507
N -t 0.631768 -n 9 -e 49.620507
N -t 0.631768 -n 8 -e 49.620291
N -t 0.631768 -n 7 -e 49.620507
N -t 0.631768 -n 11 -e 49.620291
N -t 0.631768 -n 14 -e 49.620507
r -t 0.632487270 -Hs 3 -Hd -1 -Ni 3 -Nx 179.00 -Ny 576.00 -Nz 0.00 -Ne 49.620508 -Nl MAC -Nw --- -Ma 0 -Md ffffffff -Ms 4 -Mt 800 -Is 4.255 -Id -1.255 -It message -Il 32 -If 0 -Ii 8 -Iv 32 
r -t 0.632487309 -Hs 5 -Hd -1 -Ni 5 -Nx 339.00 -Ny 449.00 -Nz 0.00 -Ne 49.620508 -Nl MAC -Nw --- -Ma 0 -Md ffffffff -Ms 4 -Mt 800 -Is 4.255 -Id -1.255 -It message -Il 32 -If 0 -Ii 8 -Iv 32 
r -t 0.632487339 -Hs 10 -Hd -1 -Ni 10 -Nx 324.00 -Ny 333.00 -Nz 0.00 -Ne 49.620292 -Nl MAC -Nw --- -Ma 0 -Md ffffffff -Ms 4 -Mt 800 -Is 4.255 -Id -1.255 -It message -Il 32 -If 0 -Ii 8 -Iv 32 
r -t 0.632487455 -Hs 2 -Hd -1 -Ni 2 -Nx 314.00 -Ny 580.00 -Nz 0.00 -Ne 49.620508 -Nl MAC -Nw --- -Ma 0 -Md ffffffff -Ms 4 -Mt 800 -Is 4.255 -Id -1.255 -It message -Il 32 -If 0 -Ii 8 -Iv 32 
r -t 0.632512270 -Hs 3 -Hd -1 -Ni 3 -Nx 179.00 -Ny 576.00 -Nz 0.00 -Ne 49.620508 -Nl RTR -Nw --- -Ma 0 -Md ffffffff -Ms 4 -Mt 800 -Is 4.255 -Id -1.255 -It message -Il 32 -If 0 -Ii 8 -Iv 32 
r -t 0.632512309 -Hs 5 -Hd -1 -Ni 5 -Nx 339.00 -Ny 449.00 -Nz 0.00 -Ne 49.620508 -Nl RTR -Nw --- -Ma 0 -Md ffffffff -Ms 4 -Mt 800 -Is 4.255 -Id -1.255 -It message -Il 32 -If 0 -Ii 8 -Iv 32 
r -t 0.632512339 -Hs 10 -Hd -1 -Ni 10 -Nx 324.00 -Ny 333.00 -Nz 0.00 -Ne 49.620292 -Nl RTR -Nw --- -Ma 0 -Md ffffffff -Ms 4 -Mt 800 -Is 4.255 -Id -1.255 -It message -Il 32 -If 0 -Ii 8 -Iv 32 
r -t 0.632512455 -Hs 2 -Hd -1 -Ni 2 -Nx 314.00 -Ny 580.00 -Nz 0.00 -Ne 49.620508 -Nl RTR -Nw --- -Ma 0 -Md ffffffff -Ms 4 -Mt 800 -Is 4.255 -Id -1.255 -It message -Il 32 -If 0 -Ii 8 -Iv 32 
s -t 0.851570345 -Hs 15 -Hd -1 -Ni 15 -Nx 516.00 -Ny 341.00 -Nz 0.00 -Ne 49.620507 -Nl RTR -Nw --- -Ma 0 -Md 0 -Ms 0 -Mt 0 -Is 15.255 -Id -1.255 -It message -Il 32 -If 0 -Ii 9 -Iv 32 
s -t 0.851945345 -Hs 15 -Hd -1 -Ni 15 -Nx 516.00 -Ny 341.00 -Nz 0.00 -Ne 49.620507 -Nl MAC -Nw --- -Ma 0 -Md ffffffff -Ms f -Mt 800 -Is 15.255 -Id -1.255 -It message -Il 90 -If 0 -Ii 9 -Iv 32 
N -t 0.851946 -n 9 -e 49.488401
N -t 0.851946 -n 14 -e 49.488400
N -t 0.851946 -n 10 -e 49.488184
N -t 0.851946 -n 5 -e 49.488400
N -t 0.851946 -n 11 -e 49.488184
N -t 0.851946 -n 6 -e 49.488184
N -t 0.851946 -n 8 -e 49.488184
N -t 0.851946 -n 2 -e 49.488400
N -t 0.851947 -n 4 -e 49.488184
N -t 0.851947 -n 7 -e 49.488400
N -t 0.851947 -n 12 -e 49.488400
N -t 0.851947 -n 16 -e 49.488184
N -t 0.851947 -n 3 -e 49.488400
N -t 0.851947 -n 1 -e 49.488184
N -t 0.851947 -n 13 -e 49.488184
N -t 0.851947 -n 0 -e 49.488184
r -t 0.852665680 -Hs 9 -Hd -1 -Ni 9 -Nx 526.00 -Ny 441.00 -Nz 0.00 -Ne 49.488401 -Nl MAC -Nw --- -Ma 0 -Md ffffffff -Ms f -Mt 800 -Is 15.255 -Id -1.255 -It message -Il 32 -If 0 -Ii 9 -Iv 32 
r -t 0.852665926 -Hs 14 -Hd -1 -Ni 14 -Nx 688.00 -Ny 368.00 -Nz 0.00 -Ne 49.488400 -Nl MAC -Nw --- -Ma 0 -Md ffffffff -Ms f -Mt 800 -Is 15.255 -Id -1.255 -It message -Il 32 -If 0 -Ii 9 -Iv 32 
r -t 0.852665986 -Hs 10 -Hd -1 -Ni 10 -Nx 324.00 -Ny 333.00 -Nz 0.00 -Ne 49.488184 -Nl MAC -Nw --- -Ma 0 -Md ffffffff -Ms f -Mt 800 -Is 15.255 -Id -1.255 -It message -Il 32 -If 0 -Ii 9 -Iv 32 
r -t 0.852666037 -Hs 5 -Hd -1 -Ni 5 -Nx 339.00 -Ny 449.00 -Nz 0.00 -Ne 49.488400 -Nl MAC -Nw --- -Ma 0 -Md ffffffff -Ms f -Mt 800 -Is 15.255 -Id -1.255 -It message -Il 32 -If 0 -Ii 9 -Iv 32 
r -t 0.852666055 -Hs 11 -Hd -1 -Ni 11 -Nx 671.00 -Ny 487.00 -Nz 0.00 -Ne 49.488184 -Nl MAC -Nw --- -Ma 0 -Md ffffffff -Ms f -Mt 800 -Is 15.255 -Id -1.255 -It message -Il 32 -If 0 -Ii 9 -Iv 32 
r -t 0.852666123 -Hs 6 -Hd -1 -Ni 6 -Nx 458.00 -Ny 567.00 -Nz 0.00 -Ne 49.488184 -Nl MAC -Nw --- -Ma 0 -Md ffffffff -Ms f -Mt 800 -Is 15.255 -Id -1.255 -It message -Il 32 -If 0 -Ii 9 -Iv 32 
r -t 0.852690680 -Hs 9 -Hd -1 -Ni 9 -Nx 526.00 -Ny 441.00 -Nz 0.00 -Ne 49.488401 -Nl RTR -Nw --- -Ma 0 -Md ffffffff -Ms f -Mt 800 -Is 15.255 -Id -1.255 -It message -Il 32 -If 0 -Ii 9 -Iv 32 
r -t 0.852690926 -Hs 14 -Hd -1 -Ni 14 -Nx 688.00 -Ny 368.00 -Nz 0.00 -Ne 49.488400 -Nl RTR -Nw --- -Ma 0 -Md ffffffff -Ms f -Mt 800 -Is 15.255 -Id -1.255 -It message -Il 32 -If 0 -Ii 9 -Iv 32 
r -t 0.852690986 -Hs 10 -Hd -1 -Ni 10 -Nx 324.00 -Ny 333.00 -Nz 0.00 -Ne 49.488184 -Nl RTR -Nw --- -Ma 0 -Md ffffffff -Ms f -Mt 800 -Is 15.255 -Id -1.255 -It message -Il 32 -If 0 -Ii 9 -Iv 32 
r -t 0.852691037 -Hs 5 -Hd -1 -Ni 5 -Nx 339.00 -Ny 449.00 -Nz 0.00 -Ne 49.488400 -Nl RTR -Nw --- -Ma 0 -Md ffffffff -Ms f -Mt 800 -Is 15.255 -Id -1.255 -It message -Il 32 -If 0 -Ii 9 -Iv 32 
r -t 0.852691055 -Hs 11 -Hd -1 -Ni 11 -Nx 671.00 -Ny 487.00 -Nz 0.00 -Ne 49.488184 -Nl RTR -Nw --- -Ma 0 -Md ffffffff -Ms f -Mt 800 -Is 15.255 -Id -1.255 -It message -Il 32 -If 0 -Ii 9 -Iv 32 
r -t 0.852691123 -Hs 6 -Hd -1 -Ni 6 -Nx 458.00 -Ny 567.00 -Nz 0.00 -Ne 49.488184 -Nl RTR -Nw --- -Ma 0 -Md ffffffff -Ms f -Mt 800 -Is 15.255 -Id -1.255 -It message -Il 32 -If 0 -Ii 9 -Iv 32 
s -t 0.890196635 -Hs 2 -Hd -1 -Ni 2 -Nx 314.00 -Ny 580.00 -Nz 0.00 -Ne 49.488400 -Nl RTR -Nw --- -Ma 0 -Md 0 -Ms 0 -Mt 0 -Is 2.255 -Id -1.255 -It message -Il 32 -If 0 -Ii 10 -Iv 32 
s -t 0.890551635 -Hs 2 -Hd -1 -Ni 2 -Nx 314.00 -Ny 580.00 -Nz 0.00 -Ne 49.488400 -Nl MAC -Nw --- -Ma 0 -Md ffffffff -Ms 2 -Mt 800 -Is 2.255 -Id -1.255 -It message -Il 90 -If 0 -Ii 10 -Iv 32 
N -t 0.890552 -n 1 -e 49.465021
N -t 0.890552 -n 5 -e 49.465237
N -t 0.890552 -n 3 -e 49.465237
N -t 0.890552 -n 6 -e 49.465021
N -t 0.890552 -n 0 -e 49.465021
N -t 0.890552 -n 4 -e 49.465021
N -t 0.890552 -n 7 -e 49.465237
N -t 0.890552 -n 8 -e 49.465021
N -t 0.890552 -n 10 -e 49.465021
N -t 0.890552 -n 9 -e 49.465237
N -t 0.890553 -n 15 -e 49.465020
N -t 0.890553 -n 11 -e 49.465020
N -t 0.890553 -n 12 -e 49.465236
N -t 0.890553 -n 13 -e 49.465020
N -t 0.890553 -n 14 -e 49.465236
r -t 0.891272029 -Hs 1 -Hd -1 -Ni 1 -Nx 311.00 -Ny 698.00 -Nz 0.00 -Ne 49.465021 -Nl MAC -Nw --- -Ma 0 -Md ffffffff -Ms 2 -Mt 800 -Is 2.255 -Id -1.255 -It message -Il 32 -If 0 -Ii 10 -Iv 32 
r -t 0.891272080 -Hs 5 -Hd -1 -Ni 5 -Nx 339.00 -Ny 449.00 -Nz 0.00 -Ne 49.465237 -Nl MAC -Nw --- -Ma 0 -Md ffffffff -Ms 2 -Mt 800 -Is 2.255 -Id -1.255 -It message -Il 32 -If 0 -Ii 10 -Iv 32 
r -t 0.891272085 -Hs 3 -Hd -1 -Ni 3 -Nx 179.00 -Ny 576.00 -Nz 0.00 -Ne 49.465237 -Nl MAC -Nw --- -Ma 0 -Md ffffffff -Ms 2 -Mt 800 -Is 2.255 -Id -1.255 -It message -Il 32 -If 0 -Ii 10 -Iv 32 
r -t 0.891272117 -Hs 6 -Hd -1 -Ni 6 -Nx 458.00 -Ny 567.00 -Nz 0.00 -Ne 49.465021 -Nl MAC -Nw --- -Ma 0 -Md ffffffff -Ms 2 -Mt 800 -Is 2.255 -Id -1.255 -It message -Il 32 -If 0 -Ii 10 -Iv 32 
r -t 0.891272233 -Hs 0 -Hd -1 -Ni 0 -Nx 179.00 -Ny 698.00 -Nz 0.00 -Ne 49.465021 -Nl MAC -Nw --- -Ma 0 -Md ffffffff -Ms 2 -Mt 800 -Is 2.255 -Id -1.255 -It message -Il 32 -If 0 -Ii 10 -Iv 32 
r -t 0.891272327 -Hs 4 -Hd -1 -Ni 4 -Nx 177.00 -Ny 424.00 -Nz 0.00 -Ne 49.465021 -Nl MAC -Nw --- -Ma 0 -Md ffffffff -Ms 2 -Mt 800 -Is 2.255 -Id -1.255 -It message -Il 32 -If 0 -Ii 10 -Iv 32 