n -t * -s 0  -x 179 -y 698 -Z 0 -z 20  -v circle -c green
n -t * -s 1  -x 311 -y 698 -Z 0 -z 20  -v circle -c green
n -t * -s 2  -x 314 -y 580 -Z 0 -z 20  -v circle -c green
n -t * -s 3  -x 179 -y 576 -Z 0 -z 20  -v circle -c green
n -t * -s 4  -x 177 -y 424 -Z 0 -z 20  -v circle -c green
n -t * -s 5  -x 339 -y 449 -Z 0 -z 20  -v circle -c green
n -t * -s 6  -x 458 -y 567 -Z 0 -z 20  -v circle -c green
n -t * -s 7  -x 491 -y 691 -Z 0 -z 20  -v circle -c green
n -t * -s 8  -x 548 -y 590 -Z 0 -z 20  -v circle -c green
n -t * -s 9  -x 526 -y 441 -Z 0 -z 20  -v circle -c green
n -t * -s 10  -x 324 -y 333 -Z 0 -z 20  -v circle -c green
n -t * -s 11  -x 671 -y 487 -Z 0 -z 20  -v circle -c green
n -t * -s 12  -x 708 -y 640 -Z 0 -z 20  -v circle -c green
n -t * -s 13  -x 683 -y 748 -Z 0 -z 20  -v circle -c green
n -t * -s 14  -x 688 -y 368 -Z 0 -z 20  -v circle -c green
n -t * -s 15  -x 516 -y 341 -Z 0 -z 20  -v circle -c green
n -t * -s 16  -x 876 -y 519 -Z 0 -z 20  -v circle -c green
V -t * -v 1.0a5 -a 0
W -t * -x 976 -y 848
A -t * -n 1 -p 0 -o 0x7fffffff -c 30 -a 1
A -t * -h 1 -m 1073741823 -s 0
n -t 1.000000 -s 6 -x 458.000000 -y 567.000000 -U 1.553926 -V -9.878528 -T 27.028318
+ -t 1.000000000 -s 3 -d -1 -p tcp -e 40 -c 2 -a 0 -i 0 -k AGT 
- -t 1.000000000 -s 3 -d -1 -p tcp -e 40 -c 2 -a 0 -i 0 -k AGT
h -t 1.000000000 -s 3 -d -1 -p tcp -e 40 -c 2 -a 0 -i 0 -k AGT
+ -t 1.001616328 -s 3 -d -1 -p DSR -e 32 -c 2 -a 0 -i 1 -k RTR 
- -t 1.001616328 -s 3 -d -1 -p DSR -e 32 -c 2 -a 0 -i 1 -k RTR
h -t 1.001616328 -s 3 -d -1 -p DSR -e 32 -c 2 -a 0 -i 1 -k RTR
+ -t 1.002091328 -s 3 -d -1 -p DSR -e 90 -c 2 -a 0 -i 1 -k MAC 
- -t 1.002091328 -s 3 -d -1 -p DSR -e 90 -c 2 -a 0 -i 1 -k MAC
h -t 1.002091328 -s 3 -d -1 -p DSR -e 90 -c 2 -a 0 -i 1 -k MAC
r -t 1.002811735 -s 0 -d -1 -p DSR -e 32 -c 2 -a 0 -i 1 -k MAC
r -t 1.002811778 -s 2 -d -1 -p DSR -e 32 -c 2 -a 0 -i 1 -k MAC
r -t 1.002811835 -s 4 -d -1 -p DSR -e 32 -c 2 -a 0 -i 1 -k MAC
r -t 1.002811927 -s 1 -d -1 -p DSR -e 32 -c 2 -a 0 -i 1 -k MAC
r -t 1.002812009 -s 5 -d -1 -p DSR -e 32 -c 2 -a 0 -i 1 -k MAC
+ -t 1.078373368 -s 3 -d -1 -p DSR -e 32 -c 2 -a 0 -i 3 -k RTR 
- -t 1.078373368 -s 3 -d -1 -p DSR -e 32 -c 2 -a 0 -i 3 -k RTR
h -t 1.078373368 -s 3 -d -1 -p DSR -e 32 -c 2 -a 0 -i 3 -k RTR
+ -t 1.078448368 -s 3 -d -1 -p DSR -e 90 -c 2 -a 0 -i 3 -k MAC 
- -t 1.078448368 -s 3 -d -1 -p DSR -e 90 -c 2 -a 0 -i 3 -k MAC
h -t 1.078448368 -s 3 -d -1 -p DSR -e 90 -c 2 -a 0 -i 3 -k MAC
r -t 1.079168775 -s 0 -d -1 -p DSR -e 32 -c 2 -a 0 -i 3 -k MAC
r -t 1.079168818 -s 2 -d -1 -p DSR -e 32 -c 2 -a 0 -i 3 -k MAC
r -t 1.079168875 -s 4 -d -1 -p DSR -e 32 -c 2 -a 0 -i 3 -k MAC
r -t 1.079168967 -s 1 -d -1 -p DSR -e 32 -c 2 -a 0 -i 3 -k MAC
r -t 1.079169049 -s 5 -d -1 -p DSR -e 32 -c 2 -a 0 -i 3 -k MAC
+ -t 1.079727839 -s 2 -d -1 -p DSR -e 48 -c 2 -a 0 -i 3 -k RTR 
- -t 1.079727839 -s 2 -d -1 -p DSR -e 48 -c 2 -a 0 -i 3 -k RTR
h -t 1.079727839 -s 2 -d -1 -p DSR -e 48 -c 2 -a 0 -i 3 -k RTR
+ -t 1.080162839 -s 2 -d -1 -p DSR -e 106 -c 2 -a 0 -i 3 -k MAC 
- -t 1.080162839 -s 2 -d -1 -p DSR -e 106 -c 2 -a 0 -i 3 -k MAC
h -t 1.080162839 -s 2 -d -1 -p DSR -e 106 -c 2 -a 0 -i 3 -k MAC
+ -t 1.080874151 -s 4 -d -1 -p DSR -e 48 -c 2 -a 0 -i 3 -k RTR 
- -t 1.080874151 -s 4 -d -1 -p DSR -e 48 -c 2 -a 0 -i 3 -k RTR
h -t 1.080874151 -s 4 -d -1 -p DSR -e 48 -c 2 -a 0 -i 3 -k RTR
r -t 1.081011232 -s 1 -d -1 -p DSR -e 48 -c 2 -a 0 -i 3 -k MAC
r -t 1.081011283 -s 5 -d -1 -p DSR -e 48 -c 2 -a 0 -i 3 -k MAC
r -t 1.081011289 -s 3 -d -1 -p DSR -e 48 -c 2 -a 0 -i 3 -k MAC
r -t 1.081011321 -s 6 -d -1 -p DSR -e 48 -c 2 -a 0 -i 3 -k MAC
r -t 1.081011436 -s 0 -d -1 -p DSR -e 48 -c 2 -a 0 -i 3 -k MAC
r -t 1.081011531 -s 4 -d -1 -p DSR -e 48 -c 2 -a 0 -i 3 -k MAC
r -t 1.081011535 -s 7 -d -1 -p DSR -e 48 -c 2 -a 0 -i 3 -k MAC
r -t 1.081011619 -s 8 -d -1 -p DSR -e 48 -c 2 -a 0 -i 3 -k MAC
r -t 1.081011663 -s 10 -d -1 -p DSR -e 48 -c 2 -a 0 -i 3 -k MAC
+ -t 1.081561531 -s 4 -d -1 -p DSR -e 106 -c 2 -a 0 -i 3 -k MAC 
- -t 1.081561531 -s 4 -d -1 -p DSR -e 106 -c 2 -a 0 -i 3 -k MAC
h -t 1.081561531 -s 4 -d -1 -p DSR -e 106 -c 2 -a 0 -i 3 -k MAC
+ -t 1.081636751 -s 8 -d -1 -p DSR -e 68 -c 2 -a 0 -i 3 -k RTR 
- -t 1.081636751 -s 8 -d -1 -p DSR -e 68 -c 2 -a 0 -i 3 -k RTR
h -t 1.081636751 -s 8 -d -1 -p DSR -e 68 -c 2 -a 0 -i 3 -k RTR
+ -t 1.081904758 -s 0 -d -1 -p DSR -e 48 -c 2 -a 0 -i 3 -k RTR 
- -t 1.081904758 -s 0 -d -1 -p DSR -e 48 -c 2 -a 0 -i 3 -k RTR
h -t 1.081904758 -s 0 -d -1 -p DSR -e 48 -c 2 -a 0 -i 3 -k RTR
r -t 1.082410037 -s 3 -d -1 -p DSR -e 48 -c 2 -a 0 -i 3 -k MAC
r -t 1.082410077 -s 5 -d -1 -p DSR -e 48 -c 2 -a 0 -i 3 -k MAC
r -t 1.082410107 -s 10 -d -1 -p DSR -e 48 -c 2 -a 0 -i 3 -k MAC
r -t 1.082410223 -s 2 -d -1 -p DSR -e 48 -c 2 -a 0 -i 3 -k MAC
+ -t 1.082964886 -s 8 -d -1 -p DSR -e 126 -c 2 -a 0 -i 3 -k MAC 
- -t 1.082964886 -s 8 -d -1 -p DSR -e 126 -c 2 -a 0 -i 3 -k MAC
h -t 1.082964886 -s 8 -d -1 -p DSR -e 126 -c 2 -a 0 -i 3 -k MAC
+ -t 1.083519202 -s 5 -d -1 -p DSR -e 48 -c 2 -a 0 -i 3 -k RTR 
- -t 1.083519202 -s 5 -d -1 -p DSR -e 48 -c 2 -a 0 -i 3 -k RTR
h -t 1.083519202 -s 5 -d -1 -p DSR -e 48 -c 2 -a 0 -i 3 -k RTR
r -t 1.083973195 -s 6 -d -1 -p DSR -e 68 -c 2 -a 0 -i 3 -k MAC
r -t 1.083973272 -s 7 -d -1 -p DSR -e 68 -c 2 -a 0 -i 3 -k MAC
r -t 1.083973388 -s 9 -d -1 -p DSR -e 68 -c 2 -a 0 -i 3 -k MAC
r -t 1.083973420 -s 11 -d -1 -p DSR -e 68 -c 2 -a 0 -i 3 -k MAC
r -t 1.083973444 -s 12 -d -1 -p DSR -e 68 -c 2 -a 0 -i 3 -k MAC
r -t 1.083973578 -s 13 -d -1 -p DSR -e 68 -c 2 -a 0 -i 3 -k MAC
r -t 1.083973666 -s 2 -d -1 -p DSR -e 68 -c 2 -a 0 -i 3 -k MAC
+ -t 1.084417153 -s 1 -d -1 -p DSR -e 48 -c 2 -a 0 -i 3 -k RTR 
- -t 1.084417153 -s 1 -d -1 -p DSR -e 48 -c 2 -a 0 -i 3 -k RTR
h -t 1.084417153 -s 1 -d -1 -p DSR -e 48 -c 2 -a 0 -i 3 -k RTR
+ -t 1.084527726 -s 5 -d -1 -p DSR -e 106 -c 2 -a 0 -i 3 -k MAC 
- -t 1.084527726 -s 5 -d -1 -p DSR -e 106 -c 2 -a 0 -i 3 -k MAC
h -t 1.084527726 -s 5 -d -1 -p DSR -e 106 -c 2 -a 0 -i 3 -k MAC
r -t 1.085376116 -s 10 -d -1 -p DSR -e 48 -c 2 -a 0 -i 3 -k MAC
r -t 1.085376170 -s 2 -d -1 -p DSR -e 48 -c 2 -a 0 -i 3 -k MAC
r -t 1.085376272 -s 4 -d -1 -p DSR -e 48 -c 2 -a 0 -i 3 -k MAC
r -t 1.085376283 -s 6 -d -1 -p DSR -e 48 -c 2 -a 0 -i 3 -k MAC
r -t 1.085376350 -s 9 -d -1 -p DSR -e 48 -c 2 -a 0 -i 3 -k MAC
r -t 1.085376407 -s 3 -d -1 -p DSR -e 48 -c 2 -a 0 -i 3 -k MAC
r -t 1.085376417 -s 15 -d -1 -p DSR -e 48 -c 2 -a 0 -i 3 -k MAC
+ -t 1.085438168 -s 6 -d -1 -p DSR -e 68 -c 2 -a 0 -i 3 -k RTR 
- -t 1.085438168 -s 6 -d -1 -p DSR -e 68 -c 2 -a 0 -i 3 -k RTR
h -t 1.085438168 -s 6 -d -1 -p DSR -e 68 -c 2 -a 0 -i 3 -k RTR
+ -t 1.086053168 -s 6 -d -1 -p DSR -e 126 -c 2 -a 0 -i 3 -k MAC 
- -t 1.086053168 -s 6 -d -1 -p DSR -e 126 -c 2 -a 0 -i 3 -k MAC
h -t 1.086053168 -s 6 -d -1 -p DSR -e 126 -c 2 -a 0 -i 3 -k MAC
+ -t 1.086081004 -s 10 -d -1 -p DSR -e 68 -c 2 -a 0 -i 3 -k RTR 
- -t 1.086081004 -s 10 -d -1 -p DSR -e 68 -c 2 -a 0 -i 3 -k RTR
h -t 1.086081004 -s 10 -d -1 -p DSR -e 68 -c 2 -a 0 -i 3 -k RTR
r -t 1.087061478 -s 8 -d -1 -p DSR -e 68 -c 2 -a 0 -i 3 -k MAC
r -t 1.087061598 -s 7 -d -1 -p DSR -e 68 -c 2 -a 0 -i 3 -k MAC
r -t 1.087061643 -s 9 -d -1 -p DSR -e 68 -c 2 -a 0 -i 3 -k MAC
r -t 1.087061651 -s 2 -d -1 -p DSR -e 68 -c 2 -a 0 -i 3 -k MAC
r -t 1.087061725 -s 5 -d -1 -p DSR -e 68 -c 2 -a 0 -i 3 -k MAC
r -t 1.087061827 -s 1 -d -1 -p DSR -e 68 -c 2 -a 0 -i 3 -k MAC
r -t 1.087061925 -s 11 -d -1 -p DSR -e 68 -c 2 -a 0 -i 3 -k MAC
r -t 1.087061943 -s 15 -d -1 -p DSR -e 68 -c 2 -a 0 -i 3 -k MAC
+ -t 1.087351827 -s 1 -d -1 -p DSR -e 106 -c 2 -a 0 -i 3 -k MAC 
- -t 1.087351827 -s 1 -d -1 -p DSR -e 106 -c 2 -a 0 -i 3 -k MAC
h -t 1.087351827 -s 1 -d -1 -p DSR -e 106 -c 2 -a 0 -i 3 -k MAC
r -t 1.088200220 -s 2 -d -1 -p DSR -e 48 -c 2 -a 0 -i 3 -k MAC
r -t 1.088200267 -s 0 -d -1 -p DSR -e 48 -c 2 -a 0 -i 3 -k MAC
r -t 1.088200426 -s 3 -d -1 -p DSR -e 48 -c 2 -a 0 -i 3 -k MAC
r -t 1.088200427 -s 7 -d -1 -p DSR -e 48 -c 2 -a 0 -i 3 -k MAC
r -t 1.088200485 -s 6 -d -1 -p DSR -e 48 -c 2 -a 0 -i 3 -k MAC
+ -t 1.088270267 -s 0 -d -1 -p DSR -e 106 -c 2 -a 0 -i 3 -k MAC 
- -t 1.088270267 -s 0 -d -1 -p DSR -e 106 -c 2 -a 0 -i 3 -k MAC
h -t 1.088270267 -s 0 -d -1 -p DSR -e 106 -c 2 -a 0 -i 3 -k MAC
r -t 1.089118673 -s 3 -d -1 -p DSR -e 48 -c 2 -a 0 -i 3 -k MAC
r -t 1.089118707 -s 1 -d -1 -p DSR -e 48 -c 2 -a 0 -i 3 -k MAC
r -t 1.089118864 -s 2 -d -1 -p DSR -e 48 -c 2 -a 0 -i 3 -k MAC
+ -t 1.089633576 -s 10 -d -1 -p DSR -e 126 -c 2 -a 0 -i 3 -k MAC 
- -t 1.089633576 -s 10 -d -1 -p DSR -e 126 -c 2 -a 0 -i 3 -k MAC
h -t 1.089633576 -s 10 -d -1 -p DSR -e 126 -c 2 -a 0 -i 3 -k MAC
+ -t 1.089677074 -s 9 -d -1 -p DSR -e 92 -c 2 -a 0 -i 3 -k RTR 
- -t 1.089677074 -s 9 -d -1 -p DSR -e 92 -c 2 -a 0 -i 3 -k RTR
h -t 1.089677074 -s 9 -d -1 -p DSR -e 92 -c 2 -a 0 -i 3 -k RTR
+ -t 1.090022454 -s 7 -d -1 -p DSR -e 68 -c 2 -a 0 -i 3 -k RTR 
- -t 1.090022454 -s 7 -d -1 -p DSR -e 68 -c 2 -a 0 -i 3 -k RTR
h -t 1.090022454 -s 7 -d -1 -p DSR -e 68 -c 2 -a 0 -i 3 -k RTR
+ -t 1.090069740 -s 13 -d -1 -p DSR -e 92 -c 2 -a 0 -i 3 -k RTR 
- -t 1.090069740 -s 13 -d -1 -p DSR -e 92 -c 2 -a 0 -i 3 -k RTR
h -t 1.090069740 -s 13 -d -1 -p DSR -e 92 -c 2 -a 0 -i 3 -k RTR
+ -t 1.090102435 -s 11 -d -1 -p DSR -e 92 -c 2 -a 0 -i 3 -k RTR 
- -t 1.090102435 -s 11 -d -1 -p DSR -e 92 -c 2 -a 0 -i 3 -k RTR
h -t 1.090102435 -s 11 -d -1 -p DSR -e 92 -c 2 -a 0 -i 3 -k RTR
r -t 1.090641966 -s 5 -d -1 -p DSR -e 68 -c 2 -a 0 -i 3 -k MAC
r -t 1.090642152 -s 4 -d -1 -p DSR -e 68 -c 2 -a 0 -i 3 -k MAC
r -t 1.090642216 -s 15 -d -1 -p DSR -e 68 -c 2 -a 0 -i 3 -k MAC
r -t 1.090642339 -s 9 -d -1 -p DSR -e 68 -c 2 -a 0 -i 3 -k MAC
r -t 1.090642400 -s 2 -d -1 -p DSR -e 68 -c 2 -a 0 -i 3 -k MAC
+ -t 1.091042863 -s 15 -d -1 -p DSR -e 68 -c 2 -a 0 -i 3 -k RTR 
- -t 1.091042863 -s 15 -d -1 -p DSR -e 68 -c 2 -a 0 -i 3 -k RTR
h -t 1.091042863 -s 15 -d -1 -p DSR -e 68 -c 2 -a 0 -i 3 -k RTR
+ -t 1.091172339 -s 9 -d -1 -p DSR -e 150 -c 2 -a 0 -i 3 -k MAC 
- -t 1.091172339 -s 9 -d -1 -p DSR -e 150 -c 2 -a 0 -i 3 -k MAC
h -t 1.091172339 -s 9 -d -1 -p DSR -e 150 -c 2 -a 0 -i 3 -k MAC
+ -t 1.092258654 -s 12 -d 8 -p DSR -e 60 -c 2 -a 0 -i 4 -k RTR 
- -t 1.092258654 -s 12 -d 8 -p DSR -e 60 -c 2 -a 0 -i 4 -k RTR
h -t 1.092258654 -s 12 -d 8 -p DSR -e 60 -c 2 -a 0 -i 4 -k RTR
r -t 1.092372674 -s 15 -d -1 -p DSR -e 92 -c 2 -a 0 -i 3 -k MAC
r -t 1.092372814 -s 6 -d -1 -p DSR -e 92 -c 2 -a 0 -i 3 -k MAC
r -t 1.092372841 -s 8 -d -1 -p DSR -e 92 -c 2 -a 0 -i 3 -k MAC
r -t 1.092372846 -s 11 -d -1 -p DSR -e 92 -c 2 -a 0 -i 3 -k MAC
r -t 1.092372932 -s 14 -d -1 -p DSR -e 92 -c 2 -a 0 -i 3 -k MAC
r -t 1.092372963 -s 5 -d -1 -p DSR -e 92 -c 2 -a 0 -i 3 -k MAC
r -t 1.092373103 -s 10 -d -1 -p DSR -e 92 -c 2 -a 0 -i 3 -k MAC
+ -t 1.092662846 -s 11 -d -1 -p DSR -e 150 -c 2 -a 0 -i 3 -k MAC 
- -t 1.092662846 -s 11 -d -1 -p DSR -e 150 -c 2 -a 0 -i 3 -k MAC
h -t 1.092662846 -s 11 -d -1 -p DSR -e 150 -c 2 -a 0 -i 3 -k MAC
r -t 1.093863247 -s 14 -d -1 -p DSR -e 92 -c 2 -a 0 -i 3 -k MAC
r -t 1.093863353 -s 9 -d -1 -p DSR -e 92 -c 2 -a 0 -i 3 -k MAC
r -t 1.093863371 -s 12 -d -1 -p DSR -e 92 -c 2 -a 0 -i 3 -k MAC
r -t 1.093863381 -s 8 -d -1 -p DSR -e 92 -c 2 -a 0 -i 3 -k MAC
r -t 1.093863538 -s 16 -d -1 -p DSR -e 92 -c 2 -a 0 -i 3 -k MAC
r -t 1.093863556 -s 15 -d -1 -p DSR -e 92 -c 2 -a 0 -i 3 -k MAC
r -t 1.093863603 -s 6 -d -1 -p DSR -e 92 -c 2 -a 0 -i 3 -k MAC
+ -t 1.094193556 -s 15 -d -1 -p DSR -e 126 -c 2 -a 0 -i 3 -k MAC 
- -t 1.094193556 -s 15 -d -1 -p DSR -e 126 -c 2 -a 0 -i 3 -k MAC
h -t 1.094193556 -s 15 -d -1 -p DSR -e 126 -c 2 -a 0 -i 3 -k MAC
r -t 1.095201891 -s 9 -d -1 -p DSR -e 68 -c 2 -a 0 -i 3 -k MAC
r -t 1.095202137 -s 14 -d -1 -p DSR -e 68 -c 2 -a 0 -i 3 -k MAC
r -t 1.095202197 -s 10 -d -1 -p DSR -e 68 -c 2 -a 0 -i 3 -k MAC
r -t 1.095202247 -s 5 -d -1 -p DSR -e 68 -c 2 -a 0 -i 3 -k MAC
r -t 1.095202266 -s 11 -d -1 -p DSR -e 68 -c 2 -a 0 -i 3 -k MAC
r -t 1.095202331 -s 6 -d -1 -p DSR -e 68 -c 2 -a 0 -i 3 -k MAC
+ -t 1.095796741 -s 12 -d -1 -p ARP -e 86 -c 2 -a 0 -i 0 -k MAC 
- -t 1.095796741 -s 12 -d -1 -p ARP -e 86 -c 2 -a 0 -i 0 -k MAC
h -t 1.095796741 -s 12 -d -1 -p ARP -e 86 -c 2 -a 0 -i 0 -k MAC
+ -t 1.096066650 -s 16 -d -1 -p DSR -e 120 -c 2 -a 0 -i 3 -k RTR 
- -t 1.096066650 -s 16 -d -1 -p DSR -e 120 -c 2 -a 0 -i 3 -k RTR
h -t 1.096066650 -s 16 -d -1 -p DSR -e 120 -c 2 -a 0 -i 3 -k RTR
r -t 1.096485110 -s 13 -d -1 -p ARP -e 28 -c 2 -a 0 -i 0 -k MAC
r -t 1.096485265 -s 11 -d -1 -p ARP -e 28 -c 2 -a 0 -i 0 -k MAC
r -t 1.096485299 -s 8 -d -1 -p ARP -e 28 -c 2 -a 0 -i 0 -k MAC
r -t 1.096485431 -s 16 -d -1 -p ARP -e 28 -c 2 -a 0 -i 0 -k MAC
r -t 1.096485484 -s 7 -d -1 -p ARP -e 28 -c 2 -a 0 -i 0 -k MAC
+ -t 1.096580299 -s 8 -d -1 -p RTS -e 44 -c 2 -a 0 -i 0 -k MAC 
- -t 1.096580299 -s 8 -d -1 -p RTS -e 44 -c 2 -a 0 -i 0 -k MAC
h -t 1.096580299 -s 8 -d -1 -p RTS -e 44 -c 2 -a 0 -i 0 -k MAC
r -t 1.096932858 -s 12 -d -1 -p RTS -e 44 -c 2 -a 0 -i 0 -k MAC
+ -t 1.096942858 -s 12 -d -1 -p CTS -e 38 -c 2 -a 0 -i 0 -k MAC 
- -t 1.096942858 -s 12 -d -1 -p CTS -e 38 -c 2 -a 0 -i 0 -k MAC
h -t 1.096942858 -s 12 -d -1 -p CTS -e 38 -c 2 -a 0 -i 0 -k MAC
r -t 1.097247417 -s 8 -d -1 -p CTS -e 38 -c 2 -a 0 -i 0 -k MAC
+ -t 1.097257417 -s 8 -d -1 -p ARP -e 86 -c 2 -a 0 -i 0 -k MAC 
- -t 1.097257417 -s 8 -d -1 -p ARP -e 86 -c 2 -a 0 -i 0 -k MAC
h -t 1.097257417 -s 8 -d -1 -p ARP -e 86 -c 2 -a 0 -i 0 -k MAC
r -t 1.097945976 -s 12 -d -1 -p ARP -e 28 -c 2 -a 0 -i 0 -k MAC
+ -t 1.097955976 -s 12 -d -1 -p ACK -e 38 -c 2 -a 0 -i 0 -k MAC 
- -t 1.097955976 -s 12 -d -1 -p ACK -e 38 -c 2 -a 0 -i 0 -k MAC
h -t 1.097955976 -s 12 -d -1 -p ACK -e 38 -c 2 -a 0 -i 0 -k MAC
r -t 1.098260534 -s 8 -d -1 -p ACK -e 38 -c 2 -a 0 -i 0 -k MAC
+ -t 1.098430719 -s 7 -d -1 -p DSR -e 126 -c 2 -a 0 -i 3 -k MAC 
- -t 1.098430719 -s 7 -d -1 -p DSR -e 126 -c 2 -a 0 -i 3 -k MAC
h -t 1.098430719 -s 7 -d -1 -p DSR -e 126 -c 2 -a 0 -i 3 -k MAC
+ -t 1.099394223 -s 14 -d -1 -p DSR -e 120 -c 2 -a 0 -i 3 -k RTR 
- -t 1.099394223 -s 14 -d -1 -p DSR -e 120 -c 2 -a 0 -i 3 -k RTR
h -t 1.099394223 -s 14 -d -1 -p DSR -e 120 -c 2 -a 0 -i 3 -k RTR
r -t 1.099439105 -s 8 -d -1 -p DSR -e 68 -c 2 -a 0 -i 3 -k MAC
r -t 1.099439149 -s 6 -d -1 -p DSR -e 68 -c 2 -a 0 -i 3 -k MAC
r -t 1.099439319 -s 1 -d -1 -p DSR -e 68 -c 2 -a 0 -i 3 -k MAC
r -t 1.099439386 -s 13 -d -1 -p DSR -e 68 -c 2 -a 0 -i 3 -k MAC
r -t 1.099439415 -s 2 -d -1 -p DSR -e 68 -c 2 -a 0 -i 3 -k MAC
r -t 1.099439462 -s 12 -d -1 -p DSR -e 68 -c 2 -a 0 -i 3 -k MAC
+ -t 1.099569386 -s 13 -d -1 -p DSR -e 150 -c 2 -a 0 -i 3 -k MAC 
- -t 1.099569386 -s 13 -d -1 -p DSR -e 150 -c 2 -a 0 -i 3 -k MAC
h -t 1.099569386 -s 13 -d -1 -p DSR -e 150 -c 2 -a 0 -i 3 -k MAC
r -t 1.100769756 -s 12 -d -1 -p DSR -e 92 -c 2 -a 0 -i 3 -k MAC
r -t 1.100770054 -s 7 -d -1 -p DSR -e 92 -c 2 -a 0 -i 3 -k MAC
r -t 1.100770079 -s 8 -d -1 -p DSR -e 92 -c 2 -a 0 -i 3 -k MAC
+ -t 1.101219756 -s 12 -d -1 -p RTS -e 44 -c 2 -a 0 -i 0 -k MAC 
- -t 1.101219756 -s 12 -d -1 -p RTS -e 44 -c 2 -a 0 -i 0 -k MAC
h -t 1.101219756 -s 12 -d -1 -p RTS -e 44 -c 2 -a 0 -i 0 -k MAC
r -t 1.101572315 -s 8 -d -1 -p RTS -e 44 -c 2 -a 0 -i 0 -k MAC
+ -t 1.101582315 -s 8 -d -1 -p CTS -e 38 -c 2 -a 0 -i 0 -k MAC 
- -t 1.101582315 -s 8 -d -1 -p CTS -e 38 -c 2 -a 0 -i 0 -k MAC
h -t 1.101582315 -s 8 -d -1 -p CTS -e 38 -c 2 -a 0 -i 0 -k MAC
r -t 1.101886873 -s 12 -d -1 -p CTS -e 38 -c 2 -a 0 -i 0 -k MAC
+ -t 1.101896873 -s 12 -d 8 -p DSR -e 118 -c 2 -a 0 -i 4 -k MAC 
- -t 1.101896873 -s 12 -d 8 -p DSR -e 118 -c 2 -a 0 -i 4 -k MAC
h -t 1.101896873 -s 12 -d 8 -p DSR -e 118 -c 2 -a 0 -i 4 -k MAC
+ -t 1.102663257 -s 12 -d 13 -p DSR -e 68 -c 2 -a 0 -i 7 -k RTR 
- -t 1.102663257 -s 12 -d 13 -p DSR -e 68 -c 2 -a 0 -i 7 -k RTR
h -t 1.102663257 -s 12 -d 13 -p DSR -e 68 -c 2 -a 0 -i 7 -k RTR
+ -t 1.102707213 -s 12 -d 11 -p DSR -e 68 -c 2 -a 0 -i 5 -k RTR 
- -t 1.102707213 -s 12 -d 11 -p DSR -e 68 -c 2 -a 0 -i 5 -k RTR
h -t 1.102707213 -s 12 -d 11 -p DSR -e 68 -c 2 -a 0 -i 5 -k RTR
r -t 1.102841432 -s 8 -d 8 -p DSR -e 60 -c 2 -a 0 -i 4 -k MAC
+ -t 1.102851432 -s 8 -d -1 -p ACK -e 38 -c 2 -a 0 -i 0 -k MAC 
- -t 1.102851432 -s 8 -d -1 -p ACK -e 38 -c 2 -a 0 -i 0 -k MAC
h -t 1.102851432 -s 8 -d -1 -p ACK -e 38 -c 2 -a 0 -i 0 -k MAC
+ -t 1.102866432 -s 8 -d 2 -p DSR -e 60 -c 2 -a 0 -i 4 -k RTR 
- -t 1.102866432 -s 8 -d 2 -p DSR -e 60 -c 2 -a 0 -i 4 -k RTR
h -t 1.102866432 -s 8 -d 2 -p DSR -e 60 -c 2 -a 0 -i 4 -k RTR
r -t 1.103155991 -s 12 -d -1 -p ACK -e 38 -c 2 -a 0 -i 0 -k MAC
+ -t 1.103545432 -s 8 -d -1 -p ARP -e 86 -c 2 -a 0 -i 0 -k MAC 
- -t 1.103545432 -s 8 -d -1 -p ARP -e 86 -c 2 -a 0 -i 0 -k MAC
h -t 1.103545432 -s 8 -d -1 -p ARP -e 86 -c 2 -a 0 -i 0 -k MAC
r -t 1.104233742 -s 6 -d -1 -p ARP -e 28 -c 2 -a 0 -i 0 -k MAC
r -t 1.104233819 -s 7 -d -1 -p ARP -e 28 -c 2 -a 0 -i 0 -k MAC
r -t 1.104233934 -s 9 -d -1 -p ARP -e 28 -c 2 -a 0 -i 0 -k MAC
r -t 1.104233967 -s 11 -d -1 -p ARP -e 28 -c 2 -a 0 -i 0 -k MAC
r -t 1.104233991 -s 12 -d -1 -p ARP -e 28 -c 2 -a 0 -i 0 -k MAC
r -t 1.104234125 -s 13 -d -1 -p ARP -e 28 -c 2 -a 0 -i 0 -k MAC
r -t 1.104234213 -s 2 -d -1 -p ARP -e 28 -c 2 -a 0 -i 0 -k MAC
+ -t 1.104403991 -s 12 -d -1 -p ARP -e 86 -c 2 -a 0 -i 0 -k MAC 
- -t 1.104403991 -s 12 -d -1 -p ARP -e 86 -c 2 -a 0 -i 0 -k MAC
h -t 1.104403991 -s 12 -d -1 -p ARP -e 86 -c 2 -a 0 -i 0 -k MAC
+ -t 1.104834019 -s 12 -d 7 -p DSR -e 60 -c 2 -a 0 -i 6 -k RTR 
- -t 1.104834019 -s 12 -d 7 -p DSR -e 60 -c 2 -a 0 -i 6 -k RTR
h -t 1.104834019 -s 12 -d 7 -p DSR -e 60 -c 2 -a 0 -i 6 -k RTR
r -t 1.105092360 -s 13 -d -1 -p ARP -e 28 -c 2 -a 0 -i 0 -k MAC
r -t 1.105092516 -s 11 -d -1 -p ARP -e 28 -c 2 -a 0 -i 0 -k MAC
r -t 1.105092550 -s 8 -d -1 -p ARP -e 28 -c 2 -a 0 -i 0 -k MAC
r -t 1.105092681 -s 16 -d -1 -p ARP -e 28 -c 2 -a 0 -i 0 -k MAC
r -t 1.105092734 -s 7 -d -1 -p ARP -e 28 -c 2 -a 0 -i 0 -k MAC
+ -t 1.105161991 -s 12 -d -1 -p ARP -e 86 -c 2 -a 0 -i 0 -k MAC 
- -t 1.105161991 -s 12 -d -1 -p ARP -e 86 -c 2 -a 0 -i 0 -k MAC
h -t 1.105161991 -s 12 -d -1 -p ARP -e 86 -c 2 -a 0 -i 0 -k MAC
r -t 1.105850360 -s 13 -d -1 -p ARP -e 28 -c 2 -a 0 -i 0 -k MAC
r -t 1.105850516 -s 11 -d -1 -p ARP -e 28 -c 2 -a 0 -i 0 -k MAC
r -t 1.105850550 -s 8 -d -1 -p ARP -e 28 -c 2 -a 0 -i 0 -k MAC
r -t 1.105850681 -s 16 -d -1 -p ARP -e 28 -c 2 -a 0 -i 0 -k MAC
r -t 1.105850734 -s 7 -d -1 -p ARP -e 28 -c 2 -a 0 -i 0 -k MAC
+ -t 1.106020360 -s 13 -d -1 -p RTS -e 44 -c 2 -a 0 -i 0 -k MAC 
- -t 1.106020360 -s 13 -d -1 -p RTS -e 44 -c 2 -a 0 -i 0 -k MAC
h -t 1.106020360 -s 13 -d -1 -p RTS -e 44 -c 2 -a 0 -i 0 -k MAC
r -t 1.106372730 -s 12 -d -1 -p RTS -e 44 -c 2 -a 0 -i 0 -k MAC
+ -t 1.106382730 -s 12 -d -1 -p CTS -e 38 -c 2 -a 0 -i 0 -k MAC 
- -t 1.106382730 -s 12 -d -1 -p CTS -e 38 -c 2 -a 0 -i 0 -k MAC
h -t 1.106382730 -s 12 -d -1 -p CTS -e 38 -c 2 -a 0 -i 0 -k MAC
r -t 1.106687100 -s 13 -d -1 -p CTS -e 38 -c 2 -a 0 -i 0 -k MAC
+ -t 1.106697100 -s 13 -d -1 -p ARP -e 86 -c 2 -a 0 -i 0 -k MAC 
- -t 1.106697100 -s 13 -d -1 -p ARP -e 86 -c 2 -a 0 -i 0 -k MAC
h -t 1.106697100 -s 13 -d -1 -p ARP -e 86 -c 2 -a 0 -i 0 -k MAC
r -t 1.107385469 -s 12 -d -1 -p ARP -e 28 -c 2 -a 0 -i 0 -k MAC
+ -t 1.107395469 -s 12 -d -1 -p ACK -e 38 -c 2 -a 0 -i 0 -k MAC 
- -t 1.107395469 -s 12 -d -1 -p ACK -e 38 -c 2 -a 0 -i 0 -k MAC
h -t 1.107395469 -s 12 -d -1 -p ACK -e 38 -c 2 -a 0 -i 0 -k MAC
r -t 1.107699839 -s 13 -d -1 -p ACK -e 38 -c 2 -a 0 -i 0 -k MAC
+ -t 1.107769469 -s 12 -d -1 -p ARP -e 86 -c 2 -a 0 -i 0 -k MAC 
- -t 1.107769469 -s 12 -d -1 -p ARP -e 86 -c 2 -a 0 -i 0 -k MAC
h -t 1.107769469 -s 12 -d -1 -p ARP -e 86 -c 2 -a 0 -i 0 -k MAC
r -t 1.108457839 -s 13 -d -1 -p ARP -e 28 -c 2 -a 0 -i 0 -k MAC
r -t 1.108457994 -s 11 -d -1 -p ARP -e 28 -c 2 -a 0 -i 0 -k MAC
r -t 1.108458028 -s 8 -d -1 -p ARP -e 28 -c 2 -a 0 -i 0 -k MAC
r -t 1.108458159 -s 16 -d -1 -p ARP -e 28 -c 2 -a 0 -i 0 -k MAC
r -t 1.108458212 -s 7 -d -1 -p ARP -e 28 -c 2 -a 0 -i 0 -k MAC
+ -t 1.108507469 -s 12 -d -1 -p RTS -e 44 -c 2 -a 0 -i 0 -k MAC 
- -t 1.108507469 -s 12 -d -1 -p RTS -e 44 -c 2 -a 0 -i 0 -k MAC
h -t 1.108507469 -s 12 -d -1 -p RTS -e 44 -c 2 -a 0 -i 0 -k MAC
r -t 1.108859839 -s 13 -d -1 -p RTS -e 44 -c 2 -a 0 -i 0 -k MAC
+ -t 1.108869839 -s 13 -d -1 -p CTS -e 38 -c 2 -a 0 -i 0 -k MAC 
- -t 1.108869839 -s 13 -d -1 -p CTS -e 38 -c 2 -a 0 -i 0 -k MAC
h -t 1.108869839 -s 13 -d -1 -p CTS -e 38 -c 2 -a 0 -i 0 -k MAC
r -t 1.109174208 -s 12 -d -1 -p CTS -e 38 -c 2 -a 0 -i 0 -k MAC
+ -t 1.109184208 -s 12 -d 13 -p DSR -e 126 -c 2 -a 0 -i 7 -k MAC 
- -t 1.109184208 -s 12 -d 13 -p DSR -e 126 -c 2 -a 0 -i 7 -k MAC
h -t 1.109184208 -s 12 -d 13 -p DSR -e 126 -c 2 -a 0 -i 7 -k MAC
r -t 1.110192578 -s 13 -d 13 -p DSR -e 68 -c 2 -a 0 -i 7 -k MAC
+ -t 1.110202578 -s 13 -d -1 -p ACK -e 38 -c 2 -a 0 -i 0 -k MAC 
- -t 1.110202578 -s 13 -d -1 -p ACK -e 38 -c 2 -a 0 -i 0 -k MAC
h -t 1.110202578 -s 13 -d -1 -p ACK -e 38 -c 2 -a 0 -i 0 -k MAC
+ -t 1.110217578 -s 13 -d 8 -p DSR -e 68 -c 2 -a 0 -i 7 -k RTR 
- -t 1.110217578 -s 13 -d 8 -p DSR -e 68 -c 2 -a 0 -i 7 -k RTR
h -t 1.110217578 -s 13 -d 8 -p DSR -e 68 -c 2 -a 0 -i 7 -k RTR
r -t 1.110506947 -s 12 -d -1 -p ACK -e 38 -c 2 -a 0 -i 0 -k MAC
+ -t 1.110736578 -s 13 -d -1 -p RTS -e 44 -c 2 -a 0 -i 0 -k MAC 
- -t 1.110736578 -s 13 -d -1 -p RTS -e 44 -c 2 -a 0 -i 0 -k MAC
h -t 1.110736578 -s 13 -d -1 -p RTS -e 44 -c 2 -a 0 -i 0 -k MAC
r -t 1.111089270 -s 8 -d -1 -p RTS -e 44 -c 2 -a 0 -i 0 -k MAC
+ -t 1.111099270 -s 8 -d -1 -p CTS -e 38 -c 2 -a 0 -i 0 -k MAC 
- -t 1.111099270 -s 8 -d -1 -p CTS -e 38 -c 2 -a 0 -i 0 -k MAC
h -t 1.111099270 -s 8 -d -1 -p CTS -e 38 -c 2 -a 0 -i 0 -k MAC
r -t 1.111403963 -s 13 -d -1 -p CTS -e 38 -c 2 -a 0 -i 0 -k MAC
+ -t 1.111413963 -s 13 -d 8 -p DSR -e 126 -c 2 -a 0 -i 7 -k MAC 
- -t 1.111413963 -s 13 -d 8 -p DSR -e 126 -c 2 -a 0 -i 7 -k MAC
h -t 1.111413963 -s 13 -d 8 -p DSR -e 126 -c 2 -a 0 -i 7 -k MAC
r -t 1.112422656 -s 8 -d 8 -p DSR -e 68 -c 2 -a 0 -i 7 -k MAC
+ -t 1.112432656 -s 8 -d -1 -p ACK -e 38 -c 2 -a 0 -i 0 -k MAC 
- -t 1.112432656 -s 8 -d -1 -p ACK -e 38 -c 2 -a 0 -i 0 -k MAC
h -t 1.112432656 -s 8 -d -1 -p ACK -e 38 -c 2 -a 0 -i 0 -k MAC
+ -t 1.112447656 -s 8 -d 2 -p DSR -e 68 -c 2 -a 0 -i 7 -k RTR 
- -t 1.112447656 -s 8 -d 2 -p DSR -e 68 -c 2 -a 0 -i 7 -k RTR
h -t 1.112447656 -s 8 -d 2 -p DSR -e 68 -c 2 -a 0 -i 7 -k RTR
d -t 1.112447656 -s 8 -d 2 -p DSR -e 60 -c 2 -a 0 -i 4 -k IFQ
r -t 1.112737349 -s 13 -d -1 -p ACK -e 38 -c 2 -a 0 -i 0 -k MAC
+ -t 1.113187042 -s 7 -d -1 -p RTS -e 44 -c 2 -a 0 -i 0 -k MAC 
- -t 1.113187042 -s 7 -d -1 -p RTS -e 44 -c 2 -a 0 -i 0 -k MAC
h -t 1.113187042 -s 7 -d -1 -p RTS -e 44 -c 2 -a 0 -i 0 -k MAC
r -t 1.113539785 -s 12 -d -1 -p RTS -e 44 -c 2 -a 0 -i 0 -k MAC
+ -t 1.113549785 -s 12 -d -1 -p CTS -e 38 -c 2 -a 0 -i 0 -k MAC 
- -t 1.113549785 -s 12 -d -1 -p CTS -e 38 -c 2 -a 0 -i 0 -k MAC
h -t 1.113549785 -s 12 -d -1 -p CTS -e 38 -c 2 -a 0 -i 0 -k MAC
r -t 1.113854528 -s 7 -d -1 -p CTS -e 38 -c 2 -a 0 -i 0 -k MAC
+ -t 1.113864528 -s 7 -d -1 -p ARP -e 86 -c 2 -a 0 -i 0 -k MAC 
- -t 1.113864528 -s 7 -d -1 -p ARP -e 86 -c 2 -a 0 -i 0 -k MAC
h -t 1.113864528 -s 7 -d -1 -p ARP -e 86 -c 2 -a 0 -i 0 -k MAC
r -t 1.114553271 -s 12 -d -1 -p ARP -e 28 -c 2 -a 0 -i 0 -k MAC
+ -t 1.114563271 -s 12 -d -1 -p ACK -e 38 -c 2 -a 0 -i 0 -k MAC 
- -t 1.114563271 -s 12 -d -1 -p ACK -e 38 -c 2 -a 0 -i 0 -k MAC
h -t 1.114563271 -s 12 -d -1 -p ACK -e 38 -c 2 -a 0 -i 0 -k MAC
r -t 1.114868015 -s 7 -d -1 -p ACK -e 38 -c 2 -a 0 -i 0 -k MAC
+ -t 1.115087435 -s 11 -d -1 -p RTS -e 44 -c 2 -a 0 -i 0 -k MAC 
- -t 1.115087435 -s 11 -d -1 -p RTS -e 44 -c 2 -a 0 -i 0 -k MAC
h -t 1.115087435 -s 11 -d -1 -p RTS -e 44 -c 2 -a 0 -i 0 -k MAC
r -t 1.115439960 -s 12 -d -1 -p RTS -e 44 -c 2 -a 0 -i 0 -k MAC
+ -t 1.115449960 -s 12 -d -1 -p CTS -e 38 -c 2 -a 0 -i 0 -k MAC 
- -t 1.115449960 -s 12 -d -1 -p CTS -e 38 -c 2 -a 0 -i 0 -k MAC
h -t 1.115449960 -s 12 -d -1 -p CTS -e 38 -c 2 -a 0 -i 0 -k MAC
r -t 1.115754485 -s 11 -d -1 -p CTS -e 38 -c 2 -a 0 -i 0 -k MAC
+ -t 1.115764485 -s 11 -d -1 -p ARP -e 86 -c 2 -a 0 -i 0 -k MAC 
- -t 1.115764485 -s 11 -d -1 -p ARP -e 86 -c 2 -a 0 -i 0 -k MAC
h -t 1.115764485 -s 11 -d -1 -p ARP -e 86 -c 2 -a 0 -i 0 -k MAC
r -t 1.116453009 -s 12 -d -1 -p ARP -e 28 -c 2 -a 0 -i 0 -k MAC
+ -t 1.116463009 -s 12 -d -1 -p ACK -e 38 -c 2 -a 0 -i 0 -k MAC 
- -t 1.116463009 -s 12 -d -1 -p ACK -e 38 -c 2 -a 0 -i 0 -k MAC
h -t 1.116463009 -s 12 -d -1 -p ACK -e 38 -c 2 -a 0 -i 0 -k MAC
r -t 1.116767534 -s 11 -d -1 -p ACK -e 38 -c 2 -a 0 -i 0 -k MAC
+ -t 1.116857568 -s 8 -d -1 -p ARP -e 86 -c 2 -a 0 -i 0 -k MAC 
- -t 1.116857568 -s 8 -d -1 -p ARP -e 86 -c 2 -a 0 -i 0 -k MAC
h -t 1.116857568 -s 8 -d -1 -p ARP -e 86 -c 2 -a 0 -i 0 -k MAC
r -t 1.117545878 -s 6 -d -1 -p ARP -e 28 -c 2 -a 0 -i 0 -k MAC
r -t 1.117545955 -s 7 -d -1 -p ARP -e 28 -c 2 -a 0 -i 0 -k MAC
r -t 1.117546070 -s 9 -d -1 -p ARP -e 28 -c 2 -a 0 -i 0 -k MAC
r -t 1.117546103 -s 11 -d -1 -p ARP -e 28 -c 2 -a 0 -i 0 -k MAC
r -t 1.117546127 -s 12 -d -1 -p ARP -e 28 -c 2 -a 0 -i 0 -k MAC
r -t 1.117546261 -s 13 -d -1 -p ARP -e 28 -c 2 -a 0 -i 0 -k MAC
r -t 1.117546349 -s 2 -d -1 -p ARP -e 28 -c 2 -a 0 -i 0 -k MAC
+ -t 1.117676349 -s 2 -d -1 -p RTS -e 44 -c 2 -a 0 -i 0 -k MAC 
- -t 1.117676349 -s 2 -d -1 -p RTS -e 44 -c 2 -a 0 -i 0 -k MAC
h -t 1.117676349 -s 2 -d -1 -p RTS -e 44 -c 2 -a 0 -i 0 -k MAC
r -t 1.118029130 -s 8 -d -1 -p RTS -e 44 -c 2 -a 0 -i 0 -k MAC
+ -t 1.118039130 -s 8 -d -1 -p CTS -e 38 -c 2 -a 0 -i 0 -k MAC 
- -t 1.118039130 -s 8 -d -1 -p CTS -e 38 -c 2 -a 0 -i 0 -k MAC
h -t 1.118039130 -s 8 -d -1 -p CTS -e 38 -c 2 -a 0 -i 0 -k MAC
r -t 1.118343910 -s 2 -d -1 -p CTS -e 38 -c 2 -a 0 -i 0 -k MAC
+ -t 1.118353910 -s 2 -d -1 -p ARP -e 86 -c 2 -a 0 -i 0 -k MAC 
- -t 1.118353910 -s 2 -d -1 -p ARP -e 86 -c 2 -a 0 -i 0 -k MAC
h -t 1.118353910 -s 2 -d -1 -p ARP -e 86 -c 2 -a 0 -i 0 -k MAC
+ -t 1.118798248 -s 16 -d -1 -p DSR -e 178 -c 2 -a 0 -i 3 -k MAC 
- -t 1.118798248 -s 16 -d -1 -p DSR -e 178 -c 2 -a 0 -i 3 -k MAC
h -t 1.118798248 -s 16 -d -1 -p DSR -e 178 -c 2 -a 0 -i 3 -k MAC
d -t 1.118799367 -s 8 -d -1 -p ARP -e 86 -c 2 -a 0 -i 0 -k MAC
+ -t 1.119949910 -s 2 -d -1 -p RTS -e 44 -c 2 -a 0 -i 0 -k MAC 
- -t 1.119949910 -s 2 -d -1 -p RTS -e 44 -c 2 -a 0 -i 0 -k MAC
h -t 1.119949910 -s 2 -d -1 -p RTS -e 44 -c 2 -a 0 -i 0 -k MAC
d -t 1.119951140 -s 11 -d -1 -p DSR -e 178 -c 2 -a 0 -i 3 -k MAC
d -t 1.120222938 -s 12 -d -1 -p DSR -e 178 -c 2 -a 0 -i 3 -k MAC
d -t 1.120223052 -s 14 -d -1 -p DSR -e 178 -c 2 -a 0 -i 3 -k MAC
d -t 1.120302691 -s 8 -d -1 -p RTS -e 44 -c 2 -a 0 -i 0 -k MAC
+ -t 1.120897239 -s 12 -d -1 -p RTS -e 44 -c 2 -a 0 -i 0 -k MAC 
- -t 1.120897239 -s 12 -d -1 -p RTS -e 44 -c 2 -a 0 -i 0 -k MAC
h -t 1.120897239 -s 12 -d -1 -p RTS -e 44 -c 2 -a 0 -i 0 -k MAC
r -t 1.121249982 -s 7 -d -1 -p RTS -e 44 -c 2 -a 0 -i 0 -k MAC
+ -t 1.121724148 -s 14 -d -1 -p DSR -e 178 -c 2 -a 0 -i 3 -k MAC 
- -t 1.121724148 -s 14 -d -1 -p DSR -e 178 -c 2 -a 0 -i 3 -k MAC
h -t 1.121724148 -s 14 -d -1 -p DSR -e 178 -c 2 -a 0 -i 3 -k MAC
r -t 1.123148549 -s 11 -d -1 -p DSR -e 120 -c 2 -a 0 -i 3 -k MAC
r -t 1.123148728 -s 15 -d -1 -p DSR -e 120 -c 2 -a 0 -i 3 -k MAC
r -t 1.123148740 -s 9 -d -1 -p DSR -e 120 -c 2 -a 0 -i 3 -k MAC
r -t 1.123148952 -s 16 -d -1 -p DSR -e 120 -c 2 -a 0 -i 3 -k MAC
+ -t 1.123863057 -s 12 -d -1 -p RTS -e 44 -c 2 -a 0 -i 0 -k MAC 
- -t 1.123863057 -s 12 -d -1 -p RTS -e 44 -c 2 -a 0 -i 0 -k MAC
h -t 1.123863057 -s 12 -d -1 -p RTS -e 44 -c 2 -a 0 -i 0 -k MAC
r -t 1.124215800 -s 7 -d -1 -p RTS -e 44 -c 2 -a 0 -i 0 -k MAC
+ -t 1.124225800 -s 7 -d -1 -p CTS -e 38 -c 2 -a 0 -i 0 -k MAC 
- -t 1.124225800 -s 7 -d -1 -p CTS -e 38 -c 2 -a 0 -i 0 -k MAC
h -t 1.124225800 -s 7 -d -1 -p CTS -e 38 -c 2 -a 0 -i 0 -k MAC
r -t 1.124530543 -s 12 -d -1 -p CTS -e 38 -c 2 -a 0 -i 0 -k MAC
+ -t 1.124540543 -s 12 -d 7 -p DSR -e 118 -c 2 -a 0 -i 6 -k MAC 
- -t 1.124540543 -s 12 -d 7 -p DSR -e 118 -c 2 -a 0 -i 6 -k MAC
h -t 1.124540543 -s 12 -d 7 -p DSR -e 118 -c 2 -a 0 -i 6 -k MAC
r -t 1.125485286 -s 7 -d 7 -p DSR -e 60 -c 2 -a 0 -i 6 -k MAC
+ -t 1.125495286 -s 7 -d -1 -p ACK -e 38 -c 2 -a 0 -i 0 -k MAC 
- -t 1.125495286 -s 7 -d -1 -p ACK -e 38 -c 2 -a 0 -i 0 -k MAC
h -t 1.125495286 -s 7 -d -1 -p ACK -e 38 -c 2 -a 0 -i 0 -k MAC
+ -t 1.125510286 -s 7 -d 2 -p DSR -e 60 -c 2 -a 0 -i 6 -k RTR 
- -t 1.125510286 -s 7 -d 2 -p DSR -e 60 -c 2 -a 0 -i 6 -k RTR
h -t 1.125510286 -s 7 -d 2 -p DSR -e 60 -c 2 -a 0 -i 6 -k RTR
r -t 1.125800029 -s 12 -d -1 -p ACK -e 38 -c 2 -a 0 -i 0 -k MAC
+ -t 1.126070029 -s 12 -d -1 -p RTS -e 44 -c 2 -a 0 -i 0 -k MAC 
- -t 1.126070029 -s 12 -d -1 -p RTS -e 44 -c 2 -a 0 -i 0 -k MAC
h -t 1.126070029 -s 12 -d -1 -p RTS -e 44 -c 2 -a 0 -i 0 -k MAC
r -t 1.126422554 -s 11 -d -1 -p RTS -e 44 -c 2 -a 0 -i 0 -k MAC
+ -t 1.126432554 -s 11 -d -1 -p CTS -e 38 -c 2 -a 0 -i 0 -k MAC 
- -t 1.126432554 -s 11 -d -1 -p CTS -e 38 -c 2 -a 0 -i 0 -k MAC
h -t 1.126432554 -s 11 -d -1 -p CTS -e 38 -c 2 -a 0 -i 0 -k MAC
r -t 1.126737079 -s 12 -d -1 -p CTS -e 38 -c 2 -a 0 -i 0 -k MAC
+ -t 1.126747079 -s 12 -d 11 -p DSR -e 126 -c 2 -a 0 -i 5 -k MAC 
- -t 1.126747079 -s 12 -d 11 -p DSR -e 126 -c 2 -a 0 -i 5 -k MAC
h -t 1.126747079 -s 12 -d 11 -p DSR -e 126 -c 2 -a 0 -i 5 -k MAC
r -t 1.127755603 -s 11 -d 11 -p DSR -e 68 -c 2 -a 0 -i 5 -k MAC
+ -t 1.127765603 -s 11 -d -1 -p ACK -e 38 -c 2 -a 0 -i 0 -k MAC 
- -t 1.127765603 -s 11 -d -1 -p ACK -e 38 -c 2 -a 0 -i 0 -k MAC
h -t 1.127765603 -s 11 -d -1 -p ACK -e 38 -c 2 -a 0 -i 0 -k MAC
+ -t 1.127780603 -s 11 -d 8 -p DSR -e 68 -c 2 -a 0 -i 5 -k RTR 
- -t 1.127780603 -s 11 -d 8 -p DSR -e 68 -c 2 -a 0 -i 5 -k RTR
h -t 1.127780603 -s 11 -d 8 -p DSR -e 68 -c 2 -a 0 -i 5 -k RTR
r -t 1.128070128 -s 12 -d -1 -p ACK -e 38 -c 2 -a 0 -i 0 -k MAC
+ -t 1.128639603 -s 11 -d -1 -p RTS -e 44 -c 2 -a 0 -i 0 -k MAC 
- -t 1.128639603 -s 11 -d -1 -p RTS -e 44 -c 2 -a 0 -i 0 -k MAC
h -t 1.128639603 -s 11 -d -1 -p RTS -e 44 -c 2 -a 0 -i 0 -k MAC
r -t 1.128992138 -s 8 -d -1 -p RTS -e 44 -c 2 -a 0 -i 0 -k MAC
+ -t 1.129002138 -s 8 -d -1 -p CTS -e 38 -c 2 -a 0 -i 0 -k MAC 
- -t 1.129002138 -s 8 -d -1 -p CTS -e 38 -c 2 -a 0 -i 0 -k MAC
h -t 1.129002138 -s 8 -d -1 -p CTS -e 38 -c 2 -a 0 -i 0 -k MAC
r -t 1.129306673 -s 11 -d -1 -p CTS -e 38 -c 2 -a 0 -i 0 -k MAC