M 0.50000 4 (402.00, 584.00, 0.00), (673.00, 533.00), 20.00
s 1.000000000 _0_ AGT  --- 0 tcp 40 [0 0 0 0] ------- [0:0 10:0 32 0] [0 0] 0 0
r 1.000000000 _0_ RTR  --- 0 tcp 40 [0 0 0 0] ------- [0:0 10:0 32 0] [0 0] 0 0
s 1.000000000 _0_ RTR  --- 0 AODV 48 [0 0 0 0] ------- [0:255 -1:255 30 0] [0x2 1 1 [10 0] [0 4]] (REQUEST)
s 1.000115000 _0_ MAC  --- 0 AODV 106 [0 ffffffff 0 800] ------- [0:255 -1:255 30 0] [0x2 1 1 [10 0] [0 4]] (REQUEST)
r 1.000963435 _5_ MAC  --- 0 AODV 48 [0 ffffffff 0 800] ------- [0:255 -1:255 30 0] [0x2 1 1 [10 0] [0 4]] (REQUEST)
r 1.000963447 _1_ MAC  --- 0 AODV 48 [0 ffffffff 0 800] ------- [0:255 -1:255 30 0] [0x2 1 1 [10 0] [0 4]] (REQUEST)
r 1.000963671 _4_ MAC  --- 0 AODV 48 [0 ffffffff 0 800] ------- [0:255 -1:255 30 0] [0x2 1 1 [10 0] [0 4]] (REQUEST)
r 1.000963794 _6_ MAC  --- 0 AODV 48 [0 ffffffff 0 800] ------- [0:255 -1:255 30 0] [0x2 1 1 [10 0] [0 4]] (REQUEST)
r 1.000988435 _5_ RTR  --- 0 AODV 48 [0 ffffffff 0 800] ------- [0:255 -1:255 30 0] [0x2 1 1 [10 0] [0 4]] (REQUEST)
r 1.000988447 _1_ RTR  --- 0 AODV 48 [0 ffffffff 0 800] ------- [0:255 -1:255 30 0] [0x2 1 1 [10 0] [0 4]] (REQUEST)
r 1.000988671 _4_ RTR  --- 0 AODV 48 [0 ffffffff 0 800] ------- [0:255 -1:255 30 0] [0x2 1 1 [10 0] [0 4]] (REQUEST)
r 1.000988794 _6_ RTR  --- 0 AODV 48 [0 ffffffff 0 800] ------- [0:255 -1:255 30 0] [0x2 1 1 [10 0] [0 4]] (REQUEST)
s 1.001869662 _5_ RTR  --- 0 AODV 48 [0 ffffffff 0 800] ------- [5:255 -1:255 29 0] [0x2 2 1 [10 0] [0 4]] (REQUEST)
s 1.002144662 _5_ MAC  --- 0 AODV 106 [0 ffffffff 5 800] ------- [5:255 -1:255 29 0] [0x2 2 1 [10 0] [0 4]] (REQUEST)
r 1.002993042 _6_ MAC  --- 0 AODV 48 [0 ffffffff 5 800] ------- [5:255 -1:255 29 0] [0x2 2 1 [10 0] [0 4]] (REQUEST)
r 1.002993097 _0_ MAC  --- 0 AODV 48 [0 ffffffff 5 800] ------- [5:255 -1:255 29 0] [0x2 2 1 [10 0] [0 4]] (REQUEST)
r 1.002993248 _4_ MAC  --- 0 AODV 48 [0 ffffffff 5 800] ------- [5:255 -1:255 29 0] [0x2 2 1 [10 0] [0 4]] (REQUEST)
r 1.002993348 _7_ MAC  --- 0 AODV 48 [0 ffffffff 5 800] ------- [5:255 -1:255 29 0] [0x2 2 1 [10 0] [0 4]] (REQUEST)
r 1.002993362 _1_ MAC  --- 0 AODV 48 [0 ffffffff 5 800] ------- [5:255 -1:255 29 0] [0x2 2 1 [10 0] [0 4]] (REQUEST)
r 1.002993415 _9_ MAC  --- 0 AODV 48 [0 ffffffff 5 800] ------- [5:255 -1:255 29 0] [0x2 2 1 [10 0] [0 4]] (REQUEST)
r 1.003018042 _6_ RTR  --- 0 AODV 48 [0 ffffffff 5 800] ------- [5:255 -1:255 29 0] [0x2 2 1 [10 0] [0 4]] (REQUEST)
r 1.003018097 _0_ RTR  --- 0 AODV 48 [0 ffffffff 5 800] ------- [5:255 -1:255 29 0] [0x2 2 1 [10 0] [0 4]] (REQUEST)
r 1.003018248 _4_ RTR  --- 0 AODV 48 [0 ffffffff 5 800] ------- [5:255 -1:255 29 0] [0x2 2 1 [10 0] [0 4]] (REQUEST)
r 1.003018348 _7_ RTR  --- 0 AODV 48 [0 ffffffff 5 800] ------- [5:255 -1:255 29 0] [0x2 2 1 [10 0] [0 4]] (REQUEST)
r 1.003018362 _1_ RTR  --- 0 AODV 48 [0 ffffffff 5 800] ------- [5:255 -1:255 29 0] [0x2 2 1 [10 0] [0 4]] (REQUEST)
r 1.003018415 _9_ RTR  --- 0 AODV 48 [0 ffffffff 5 800] ------- [5:255 -1:255 29 0] [0x2 2 1 [10 0] [0 4]] (REQUEST)
s 1.004118412 _6_ RTR  --- 0 AODV 48 [0 ffffffff 0 800] ------- [6:255 -1:255 29 0] [0x2 2 1 [10 0] [0 4]] (REQUEST)
s 1.004433412 _6_ MAC  --- 0 AODV 106 [0 ffffffff 6 800] ------- [6:255 -1:255 29 0] [0x2 2 1 [10 0] [0 4]] (REQUEST)
r 1.005281793 _5_ MAC  --- 0 AODV 48 [0 ffffffff 6 800] ------- [6:255 -1:255 29 0] [0x2 2 1 [10 0] [0 4]] (REQUEST)
r 1.005281811 _9_ MAC  --- 0 AODV 48 [0 ffffffff 6 800] ------- [6:255 -1:255 29 0] [0x2 2 1 [10 0] [0 4]] (REQUEST)
r 1.005281929 _7_ MAC  --- 0 AODV 48 [0 ffffffff 6 800] ------- [6:255 -1:255 29 0] [0x2 2 1 [10 0] [0 4]] (REQUEST)
r 1.005282010 _4_ MAC  --- 0 AODV 48 [0 ffffffff 6 800] ------- [6:255 -1:255 29 0] [0x2 2 1 [10 0] [0 4]] (REQUEST)
r 1.005282206 _0_ MAC  --- 0 AODV 48 [0 ffffffff 6 800] ------- [6:255 -1:255 29 0] [0x2 2 1 [10 0] [0 4]] (REQUEST)
r 1.005306793 _5_ RTR  --- 0 AODV 48 [0 ffffffff 6 800] ------- [6:255 -1:255 29 0] [0x2 2 1 [10 0] [0 4]] (REQUEST)
r 1.005306811 _9_ RTR  --- 0 AODV 48 [0 ffffffff 6 800] ------- [6:255 -1:255 29 0] [0x2 2 1 [10 0] [0 4]] (REQUEST)
r 1.005306929 _7_ RTR  --- 0 AODV 48 [0 ffffffff 6 800] ------- [6:255 -1:255 29 0] [0x2 2 1 [10 0] [0 4]] (REQUEST)
r 1.005307010 _4_ RTR  --- 0 AODV 48 [0 ffffffff 6 800] ------- [6:255 -1:255 29 0] [0x2 2 1 [10 0] [0 4]] (REQUEST)
r 1.005307206 _0_ RTR  --- 0 AODV 48 [0 ffffffff 6 800] ------- [6:255 -1:255 29 0] [0x2 2 1 [10 0] [0 4]] (REQUEST)
s 1.005400180 _1_ RTR  --- 0 AODV 48 [0 ffffffff 0 800] ------- [1:255 -1:255 29 0] [0x2 2 1 [10 0] [0 4]] (REQUEST)
s 1.006109205 _9_ RTR  --- 0 AODV 48 [0 ffffffff 5 800] ------- [9:255 -1:255 28 0] [0x2 3 1 [10 0] [0 4]] (REQUEST)
s 1.006236343 _1_ MAC  --- 0 AODV 106 [0 ffffffff 1 800] ------- [1:255 -1:255 29 0] [0x2 2 1 [10 0] [0 4]] (REQUEST)
r 1.007084789 _0_ MAC  --- 0 AODV 48 [0 ffffffff 1 800] ------- [1:255 -1:255 29 0] [0x2 2 1 [10 0] [0 4]] (REQUEST)
r 1.007084823 _4_ MAC  --- 0 AODV 48 [0 ffffffff 1 800] ------- [1:255 -1:255 29 0] [0x2 2 1 [10 0] [0 4]] (REQUEST)
r 1.007084829 _2_ MAC  --- 0 AODV 48 [0 ffffffff 1 800] ------- [1:255 -1:255 29 0] [0x2 2 1 [10 0] [0 4]] (REQUEST)
r 1.007085043 _5_ MAC  --- 0 AODV 48 [0 ffffffff 1 800] ------- [1:255 -1:255 29 0] [0x2 2 1 [10 0] [0 4]] (REQUEST)
r 1.007085113 _7_ MAC  --- 0 AODV 48 [0 ffffffff 1 800] ------- [1:255 -1:255 29 0] [0x2 2 1 [10 0] [0 4]] (REQUEST)
r 1.007085159 _3_ MAC  --- 0 AODV 48 [0 ffffffff 1 800] ------- [1:255 -1:255 29 0] [0x2 2 1 [10 0] [0 4]] (REQUEST)
r 1.007109789 _0_ RTR  --- 0 AODV 48 [0 ffffffff 1 800] ------- [1:255 -1:255 29 0] [0x2 2 1 [10 0] [0 4]] (REQUEST)
r 1.007109823 _4_ RTR  --- 0 AODV 48 [0 ffffffff 1 800] ------- [1:255 -1:255 29 0] [0x2 2 1 [10 0] [0 4]] (REQUEST)
r 1.007109829 _2_ RTR  --- 0 AODV 48 [0 ffffffff 1 800] ------- [1:255 -1:255 29 0] [0x2 2 1 [10 0] [0 4]] (REQUEST)
r 1.007110043 _5_ RTR  --- 0 AODV 48 [0 ffffffff 1 800] ------- [1:255 -1:255 29 0] [0x2 2 1 [10 0] [0 4]] (REQUEST)
r 1.007110113 _7_ RTR  --- 0 AODV 48 [0 ffffffff 1 800] ------- [1:255 -1:255 29 0] [0x2 2 1 [10 0] [0 4]] (REQUEST)
r 1.007110159 _3_ RTR  --- 0 AODV 48 [0 ffffffff 1 800] ------- [1:255 -1:255 29 0] [0x2 2 1 [10 0] [0 4]] (REQUEST)
s 1.007619459 _9_ MAC  --- 0 AODV 106 [0 ffffffff 9 800] ------- [9:255 -1:255 28 0] [0x2 3 1 [10 0] [0 4]] (REQUEST)
r 1.008467858 _6_ MAC  --- 0 AODV 48 [0 ffffffff 9 800] ------- [9:255 -1:255 28 0] [0x2 3 1 [10 0] [0 4]] (REQUEST)
r 1.008467869 _7_ MAC  --- 0 AODV 48 [0 ffffffff 9 800] ------- [9:255 -1:255 28 0] [0x2 3 1 [10 0] [0 4]] (REQUEST)
r 1.008467942 _10_ MAC  --- 0 AODV 48 [0 ffffffff 9 800] ------- [9:255 -1:255 28 0] [0x2 3 1 [10 0] [0 4]] (REQUEST)
r 1.008468120 _4_ MAC  --- 0 AODV 48 [0 ffffffff 9 800] ------- [9:255 -1:255 28 0] [0x2 3 1 [10 0] [0 4]] (REQUEST)
r 1.008468211 _5_ MAC  --- 0 AODV 48 [0 ffffffff 9 800] ------- [9:255 -1:255 28 0] [0x2 3 1 [10 0] [0 4]] (REQUEST)
r 1.008492858 _6_ RTR  --- 0 AODV 48 [0 ffffffff 9 800] ------- [9:255 -1:255 28 0] [0x2 3 1 [10 0] [0 4]] (REQUEST)
r 1.008492869 _7_ RTR  --- 0 AODV 48 [0 ffffffff 9 800] ------- [9:255 -1:255 28 0] [0x2 3 1 [10 0] [0 4]] (REQUEST)
r 1.008492942 _10_ RTR  --- 0 AODV 48 [0 ffffffff 9 800] ------- [9:255 -1:255 28 0] [0x2 3 1 [10 0] [0 4]] (REQUEST)
s 1.008492942 _10_ RTR  --- 0 AODV 44 [0 0 0 0] ------- [10:255 0:255 30 9] [0x4 1 [10 4] 10.000000] (REPLY)
r 1.008493120 _4_ RTR  --- 0 AODV 48 [0 ffffffff 9 800] ------- [9:255 -1:255 28 0] [0x2 3 1 [10 0] [0 4]] (REQUEST)
r 1.008493211 _5_ RTR  --- 0 AODV 48 [0 ffffffff 9 800] ------- [9:255 -1:255 28 0] [0x2 3 1 [10 0] [0 4]] (REQUEST)
s 1.008887942 _10_ MAC  --- 0 ARP 86 [0 ffffffff a 806] ------- [REQUEST 10/10 0/9]
s 1.008980226 _4_ RTR  --- 0 AODV 48 [0 ffffffff 0 800] ------- [4:255 -1:255 29 0] [0x2 2 1 [10 0] [0 4]] (REQUEST)
s 1.009406999 _7_ RTR  --- 0 AODV 48 [0 ffffffff 5 800] ------- [7:255 -1:255 28 0] [0x2 3 1 [10 0] [0 4]] (REQUEST)
r 1.009576405 _11_ MAC  --- 0 ARP 28 [0 ffffffff a 806] ------- [REQUEST 10/10 0/9]
r 1.009576426 _9_ MAC  --- 0 ARP 28 [0 ffffffff a 806] ------- [REQUEST 10/10 0/9]
r 1.009576543 _7_ MAC  --- 0 ARP 28 [0 ffffffff a 806] ------- [REQUEST 10/10 0/9]
r 1.009576672 _8_ MAC  --- 0 ARP 28 [0 ffffffff a 806] ------- [REQUEST 10/10 0/9]
s 1.009746426 _9_ MAC  --- 0 RTS 44 [52e a 9 0] 
r 1.010098910 _10_ MAC  --- 0 RTS 44 [52e a 9 0] 
s 1.010108910 _10_ MAC  --- 0 CTS 38 [3f4 9 0 0] 
r 1.010413394 _9_ MAC  --- 0 CTS 38 [3f4 9 0 0] 
s 1.010423394 _9_ MAC  --- 0 ARP 86 [13a a 9 806] ------- [REPLY 9/9 10/10]
r 1.011111877 _10_ MAC  --- 0 ARP 28 [13a a 9 806] ------- [REPLY 9/9 10/10]
s 1.011121877 _10_ MAC  --- 0 ACK 38 [0 9 0 0] 
s 1.011346727 _3_ RTR  --- 0 AODV 48 [0 ffffffff 1 800] ------- [3:255 -1:255 28 0] [0x2 3 1 [10 0] [0 4]] (REQUEST)
r 1.011426361 _9_ MAC  --- 0 ACK 38 [0 9 0 0] 
s 1.011556478 _7_ MAC  --- 0 AODV 106 [0 ffffffff 7 800] ------- [7:255 -1:255 28 0] [0x2 3 1 [10 0] [0 4]] (REQUEST)
r 1.012404768 _4_ MAC  --- 0 AODV 48 [0 ffffffff 7 800] ------- [7:255 -1:255 28 0] [0x2 3 1 [10 0] [0 4]] (REQUEST)
r 1.012404889 _9_ MAC  --- 0 AODV 48 [0 ffffffff 7 800] ------- [7:255 -1:255 28 0] [0x2 3 1 [10 0] [0 4]] (REQUEST)
r 1.012404995 _6_ MAC  --- 0 AODV 48 [0 ffffffff 7 800] ------- [7:255 -1:255 28 0] [0x2 3 1 [10 0] [0 4]] (REQUEST)
r 1.012405079 _10_ MAC  --- 0 AODV 48 [0 ffffffff 7 800] ------- [7:255 -1:255 28 0] [0x2 3 1 [10 0] [0 4]] (REQUEST)
r 1.012405164 _5_ MAC  --- 0 AODV 48 [0 ffffffff 7 800] ------- [7:255 -1:255 28 0] [0x2 3 1 [10 0] [0 4]] (REQUEST)
r 1.012405186 _3_ MAC  --- 0 AODV 48 [0 ffffffff 7 800] ------- [7:255 -1:255 28 0] [0x2 3 1 [10 0] [0 4]] (REQUEST)
r 1.012405192 _8_ MAC  --- 0 AODV 48 [0 ffffffff 7 800] ------- [7:255 -1:255 28 0] [0x2 3 1 [10 0] [0 4]] (REQUEST)
r 1.012405226 _11_ MAC  --- 0 AODV 48 [0 ffffffff 7 800] ------- [7:255 -1:255 28 0] [0x2 3 1 [10 0] [0 4]] (REQUEST)
r 1.012405249 _1_ MAC  --- 0 AODV 48 [0 ffffffff 7 800] ------- [7:255 -1:255 28 0] [0x2 3 1 [10 0] [0 4]] (REQUEST)
r 1.012429768 _4_ RTR  --- 0 AODV 48 [0 ffffffff 7 800] ------- [7:255 -1:255 28 0] [0x2 3 1 [10 0] [0 4]] (REQUEST)
r 1.012429889 _9_ RTR  --- 0 AODV 48 [0 ffffffff 7 800] ------- [7:255 -1:255 28 0] [0x2 3 1 [10 0] [0 4]] (REQUEST)
r 1.012429995 _6_ RTR  --- 0 AODV 48 [0 ffffffff 7 800] ------- [7:255 -1:255 28 0] [0x2 3 1 [10 0] [0 4]] (REQUEST)
r 1.012430079 _10_ RTR  --- 0 AODV 48 [0 ffffffff 7 800] ------- [7:255 -1:255 28 0] [0x2 3 1 [10 0] [0 4]] (REQUEST)
r 1.012430164 _5_ RTR  --- 0 AODV 48 [0 ffffffff 7 800] ------- [7:255 -1:255 28 0] [0x2 3 1 [10 0] [0 4]] (REQUEST)
r 1.012430186 _3_ RTR  --- 0 AODV 48 [0 ffffffff 7 800] ------- [7:255 -1:255 28 0] [0x2 3 1 [10 0] [0 4]] (REQUEST)
r 1.012430192 _8_ RTR  --- 0 AODV 48 [0 ffffffff 7 800] ------- [7:255 -1:255 28 0] [0x2 3 1 [10 0] [0 4]] (REQUEST)
r 1.012430226 _11_ RTR  --- 0 AODV 48 [0 ffffffff 7 800] ------- [7:255 -1:255 28 0] [0x2 3 1 [10 0] [0 4]] (REQUEST)
r 1.012430249 _1_ RTR  --- 0 AODV 48 [0 ffffffff 7 800] ------- [7:255 -1:255 28 0] [0x2 3 1 [10 0] [0 4]] (REQUEST)
s 1.012475079 _10_ MAC  --- 0 RTS 44 [5ae 9 a 0] 
s 1.012475186 _3_ MAC  --- 0 AODV 106 [0 ffffffff 3 800] ------- [3:255 -1:255 28 0] [0x2 3 1 [10 0] [0 4]] (REQUEST)
r 1.012827563 _9_ MAC  --- 0 RTS 44 [5ae 9 a 0] 
r 1.013323595 _8_ MAC  --- 0 AODV 48 [0 ffffffff 3 800] ------- [3:255 -1:255 28 0] [0x2 3 1 [10 0] [0 4]] (REQUEST)
r 1.013323691 _2_ MAC  --- 0 AODV 48 [0 ffffffff 3 800] ------- [3:255 -1:255 28 0] [0x2 3 1 [10 0] [0 4]] (REQUEST)
D 1.013323833 _4_ MAC  COL 0 AODV 106 [0 ffffffff 3 800] ------- [3:255 -1:255 28 0] [0x2 3 1 [10 0] [0 4]] (REQUEST)
D 1.013323895 _7_ MAC  COL 0 AODV 106 [0 ffffffff 3 800] ------- [3:255 -1:255 28 0] [0x2 3 1 [10 0] [0 4]] (REQUEST)
D 1.013323937 _11_ MAC  COL 0 AODV 106 [0 ffffffff 3 800] ------- [3:255 -1:255 28 0] [0x2 3 1 [10 0] [0 4]] (REQUEST)
D 1.013324003 _1_ MAC  COL 0 AODV 106 [0 ffffffff 3 800] ------- [3:255 -1:255 28 0] [0x2 3 1 [10 0] [0 4]] (REQUEST)
r 1.013348595 _8_ RTR  --- 0 AODV 48 [0 ffffffff 3 800] ------- [3:255 -1:255 28 0] [0x2 3 1 [10 0] [0 4]] (REQUEST)
r 1.013348691 _2_ RTR  --- 0 AODV 48 [0 ffffffff 3 800] ------- [3:255 -1:255 28 0] [0x2 3 1 [10 0] [0 4]] (REQUEST)
s 1.014037833 _4_ MAC  --- 0 AODV 106 [0 ffffffff 4 800] ------- [4:255 -1:255 29 0] [0x2 2 1 [10 0] [0 4]] (REQUEST)
r 1.014886123 _7_ MAC  --- 0 AODV 48 [0 ffffffff 4 800] ------- [4:255 -1:255 29 0] [0x2 2 1 [10 0] [0 4]] (REQUEST)
r 1.014886314 _1_ MAC  --- 0 AODV 48 [0 ffffffff 4 800] ------- [4:255 -1:255 29 0] [0x2 2 1 [10 0] [0 4]] (REQUEST)
r 1.014886420 _5_ MAC  --- 0 AODV 48 [0 ffffffff 4 800] ------- [4:255 -1:255 29 0] [0x2 2 1 [10 0] [0 4]] (REQUEST)
r 1.014886432 _6_ MAC  --- 0 AODV 48 [0 ffffffff 4 800] ------- [4:255 -1:255 29 0] [0x2 2 1 [10 0] [0 4]] (REQUEST)
r 1.014886481 _3_ MAC  --- 0 AODV 48 [0 ffffffff 4 800] ------- [4:255 -1:255 29 0] [0x2 2 1 [10 0] [0 4]] (REQUEST)
r 1.014886494 _9_ MAC  --- 0 AODV 48 [0 ffffffff 4 800] ------- [4:255 -1:255 29 0] [0x2 2 1 [10 0] [0 4]] (REQUEST)
r 1.014886503 _2_ MAC  --- 0 AODV 48 [0 ffffffff 4 800] ------- [4:255 -1:255 29 0] [0x2 2 1 [10 0] [0 4]] (REQUEST)
r 1.014886505 _0_ MAC  --- 0 AODV 48 [0 ffffffff 4 800] ------- [4:255 -1:255 29 0] [0x2 2 1 [10 0] [0 4]] (REQUEST)
r 1.014886647 _8_ MAC  --- 0 AODV 48 [0 ffffffff 4 800] ------- [4:255 -1:255 29 0] [0x2 2 1 [10 0] [0 4]] (REQUEST)
r 1.014911123 _7_ RTR  --- 0 AODV 48 [0 ffffffff 4 800] ------- [4:255 -1:255 29 0] [0x2 2 1 [10 0] [0 4]] (REQUEST)
r 1.014911314 _1_ RTR  --- 0 AODV 48 [0 ffffffff 4 800] ------- [4:255 -1:255 29 0] [0x2 2 1 [10 0] [0 4]] (REQUEST)
r 1.014911420 _5_ RTR  --- 0 AODV 48 [0 ffffffff 4 800] ------- [4:255 -1:255 29 0] [0x2 2 1 [10 0] [0 4]] (REQUEST)
r 1.014911432 _6_ RTR  --- 0 AODV 48 [0 ffffffff 4 800] ------- [4:255 -1:255 29 0] [0x2 2 1 [10 0] [0 4]] (REQUEST)
r 1.014911481 _3_ RTR  --- 0 AODV 48 [0 ffffffff 4 800] ------- [4:255 -1:255 29 0] [0x2 2 1 [10 0] [0 4]] (REQUEST)
r 1.014911494 _9_ RTR  --- 0 AODV 48 [0 ffffffff 4 800] ------- [4:255 -1:255 29 0] [0x2 2 1 [10 0] [0 4]] (REQUEST)
r 1.014911503 _2_ RTR  --- 0 AODV 48 [0 ffffffff 4 800] ------- [4:255 -1:255 29 0] [0x2 2 1 [10 0] [0 4]] (REQUEST)
r 1.014911505 _0_ RTR  --- 0 AODV 48 [0 ffffffff 4 800] ------- [4:255 -1:255 29 0] [0x2 2 1 [10 0] [0 4]] (REQUEST)
r 1.014911647 _8_ RTR  --- 0 AODV 48 [0 ffffffff 4 800] ------- [4:255 -1:255 29 0] [0x2 2 1 [10 0] [0 4]] (REQUEST)
s 1.015707106 _2_ RTR  --- 0 AODV 48 [0 ffffffff 1 800] ------- [2:255 -1:255 28 0] [0x2 3 1 [10 0] [0 4]] (REQUEST)
s 1.015822106 _2_ MAC  --- 0 AODV 106 [0 ffffffff 2 800] ------- [2:255 -1:255 28 0] [0x2 3 1 [10 0] [0 4]] (REQUEST)
r 1.016670593 _1_ MAC  --- 0 AODV 48 [0 ffffffff 2 800] ------- [2:255 -1:255 28 0] [0x2 3 1 [10 0] [0 4]] (REQUEST)
r 1.016670611 _3_ MAC  --- 0 AODV 48 [0 ffffffff 2 800] ------- [2:255 -1:255 28 0] [0x2 3 1 [10 0] [0 4]] (REQUEST)
r 1.016670777 _4_ MAC  --- 0 AODV 48 [0 ffffffff 2 800] ------- [2:255 -1:255 28 0] [0x2 3 1 [10 0] [0 4]] (REQUEST)
r 1.016695593 _1_ RTR  --- 0 AODV 48 [0 ffffffff 2 800] ------- [2:255 -1:255 28 0] [0x2 3 1 [10 0] [0 4]] (REQUEST)
r 1.016695611 _3_ RTR  --- 0 AODV 48 [0 ffffffff 2 800] ------- [2:255 -1:255 28 0] [0x2 3 1 [10 0] [0 4]] (REQUEST)
r 1.016695777 _4_ RTR  --- 0 AODV 48 [0 ffffffff 2 800] ------- [2:255 -1:255 28 0] [0x2 3 1 [10 0] [0 4]] (REQUEST)
s 1.017505493 _10_ MAC  --- 0 RTS 44 [5ae 9 a 0] 
r 1.017857976 _9_ MAC  --- 0 RTS 44 [5ae 9 a 0] 
s 1.017867976 _9_ MAC  --- 0 CTS 38 [474 a 0 0] 
r 1.018172460 _10_ MAC  --- 0 CTS 38 [474 a 0 0] 
s 1.018182460 _10_ MAC  --- 0 AODV 102 [13a 9 a 800] ------- [10:255 0:255 30 9] [0x4 1 [10 4] 10.000000] (REPLY)
r 1.018998944 _9_ MAC  --- 0 AODV 44 [13a 9 a 800] ------- [10:255 0:255 30 9] [0x4 1 [10 4] 10.000000] (REPLY)
s 1.019008944 _9_ MAC  --- 0 ACK 38 [0 a 0 0] 
r 1.019023944 _9_ RTR  --- 0 AODV 44 [13a 9 a 800] ------- [10:255 0:255 30 9] [0x4 1 [10 4] 10.000000] (REPLY)
f 1.019023944 _9_ RTR  --- 0 AODV 44 [13a 9 a 800] ------- [10:255 0:255 29 5] [0x4 2 [10 4] 10.000000] (REPLY)
r 1.019313427 _10_ MAC  --- 0 ACK 38 [0 a 0 0] 
s 1.019353260 _8_ RTR  --- 0 AODV 48 [0 ffffffff 7 800] ------- [8:255 -1:255 27 0] [0x2 4 1 [10 0] [0 4]] (REQUEST)
s 1.019722944 _9_ MAC  --- 0 ARP 86 [0 ffffffff 9 806] ------- [REQUEST 9/9 0/5]
r 1.020411343 _6_ MAC  --- 0 ARP 28 [0 ffffffff 9 806] ------- [REQUEST 9/9 0/5]
r 1.020411355 _7_ MAC  --- 0 ARP 28 [0 ffffffff 9 806] ------- [REQUEST 9/9 0/5]
r 1.020411427 _10_ MAC  --- 0 ARP 28 [0 ffffffff 9 806] ------- [REQUEST 9/9 0/5]
r 1.020411604 _4_ MAC  --- 0 ARP 28 [0 ffffffff 9 806] ------- [REQUEST 9/9 0/5]
r 1.020411697 _5_ MAC  --- 0 ARP 28 [0 ffffffff 9 806] ------- [REQUEST 9/9 0/5]
s 1.020666697 _5_ MAC  --- 0 RTS 44 [52e 9 5 0] 
r 1.021019449 _9_ MAC  --- 0 RTS 44 [52e 9 5 0] 
s 1.021029449 _9_ MAC  --- 0 CTS 38 [3f4 5 0 0] 
s 1.021050899 _11_ RTR  --- 0 AODV 48 [0 ffffffff 7 800] ------- [11:255 -1:255 27 0] [0x2 4 1 [10 0] [0 4]] (REQUEST)
r 1.021334202 _5_ MAC  --- 0 CTS 38 [3f4 5 0 0] 
s 1.021344202 _5_ MAC  --- 0 ARP 86 [13a 9 5 806] ------- [REPLY 5/5 9/9]
r 1.022032955 _9_ MAC  --- 0 ARP 28 [13a 9 5 806] ------- [REPLY 5/5 9/9]
s 1.022042955 _9_ MAC  --- 0 ACK 38 [0 5 0 0] 
r 1.022347708 _5_ MAC  --- 0 ACK 38 [0 5 0 0] 
s 1.022476955 _9_ MAC  --- 0 RTS 44 [5ae 5 9 0] 
r 1.022829708 _5_ MAC  --- 0 RTS 44 [5ae 5 9 0] 
s 1.022839708 _5_ MAC  --- 0 CTS 38 [474 9 0 0] 
r 1.023144461 _9_ MAC  --- 0 CTS 38 [474 9 0 0] 
s 1.023154461 _9_ MAC  --- 0 AODV 102 [13a 5 9 800] ------- [10:255 0:255 29 5] [0x4 2 [10 4] 10.000000] (REPLY)
r 1.023971213 _5_ MAC  --- 0 AODV 44 [13a 5 9 800] ------- [10:255 0:255 29 5] [0x4 2 [10 4] 10.000000] (REPLY)
s 1.023981213 _5_ MAC  --- 0 ACK 38 [0 9 0 0] 
r 1.023996213 _5_ RTR  --- 0 AODV 44 [13a 5 9 800] ------- [10:255 0:255 29 5] [0x4 2 [10 4] 10.000000] (REPLY)
f 1.023996213 _5_ RTR  --- 0 AODV 44 [13a 5 9 800] ------- [10:255 0:255 28 0] [0x4 3 [10 4] 10.000000] (REPLY)
r 1.024285966 _9_ MAC  --- 0 ACK 38 [0 9 0 0] 
s 1.024780586 _8_ MAC  --- 0 AODV 106 [0 ffffffff 8 800] ------- [8:255 -1:255 27 0] [0x2 4 1 [10 0] [0 4]] (REQUEST)
r 1.025628949 _11_ MAC  --- 0 AODV 48 [0 ffffffff 8 800] ------- [8:255 -1:255 27 0] [0x2 4 1 [10 0] [0 4]] (REQUEST)
r 1.025628995 _3_ MAC  --- 0 AODV 48 [0 ffffffff 8 800] ------- [8:255 -1:255 27 0] [0x2 4 1 [10 0] [0 4]] (REQUEST)
r 1.025629300 _7_ MAC  --- 0 AODV 48 [0 ffffffff 8 800] ------- [8:255 -1:255 27 0] [0x2 4 1 [10 0] [0 4]] (REQUEST)
r 1.025629316 _10_ MAC  --- 0 AODV 48 [0 ffffffff 8 800] ------- [8:255 -1:255 27 0] [0x2 4 1 [10 0] [0 4]] (REQUEST)
r 1.025629399 _4_ MAC  --- 0 AODV 48 [0 ffffffff 8 800] ------- [8:255 -1:255 27 0] [0x2 4 1 [10 0] [0 4]] (REQUEST)
r 1.025653949 _11_ RTR  --- 0 AODV 48 [0 ffffffff 8 800] ------- [8:255 -1:255 27 0] [0x2 4 1 [10 0] [0 4]] (REQUEST)
r 1.025653995 _3_ RTR  --- 0 AODV 48 [0 ffffffff 8 800] ------- [8:255 -1:255 27 0] [0x2 4 1 [10 0] [0 4]] (REQUEST)
r 1.025654300 _7_ RTR  --- 0 AODV 48 [0 ffffffff 8 800] ------- [8:255 -1:255 27 0] [0x2 4 1 [10 0] [0 4]] (REQUEST)
r 1.025654316 _10_ RTR  --- 0 AODV 48 [0 ffffffff 8 800] ------- [8:255 -1:255 27 0] [0x2 4 1 [10 0] [0 4]] (REQUEST)
r 1.025654399 _4_ RTR  --- 0 AODV 48 [0 ffffffff 8 800] ------- [8:255 -1:255 27 0] [0x2 4 1 [10 0] [0 4]] (REQUEST)
s 1.025698949 _11_ MAC  --- 0 AODV 106 [0 ffffffff b 800] ------- [11:255 -1:255 27 0] [0x2 4 1 [10 0] [0 4]] (REQUEST)
r 1.026547311 _8_ MAC  --- 0 AODV 48 [0 ffffffff b 800] ------- [11:255 -1:255 27 0] [0x2 4 1 [10 0] [0 4]] (REQUEST)
r 1.026547412 _10_ MAC  --- 0 AODV 48 [0 ffffffff b 800] ------- [11:255 -1:255 27 0] [0x2 4 1 [10 0] [0 4]] (REQUEST)
r 1.026547697 _7_ MAC  --- 0 AODV 48 [0 ffffffff b 800] ------- [11:255 -1:255 27 0] [0x2 4 1 [10 0] [0 4]] (REQUEST)
r 1.026547700 _3_ MAC  --- 0 AODV 48 [0 ffffffff b 800] ------- [11:255 -1:255 27 0] [0x2 4 1 [10 0] [0 4]] (REQUEST)
r 1.026572311 _8_ RTR  --- 0 AODV 48 [0 ffffffff b 800] ------- [11:255 -1:255 27 0] [0x2 4 1 [10 0] [0 4]] (REQUEST)
r 1.026572412 _10_ RTR  --- 0 AODV 48 [0 ffffffff b 800] ------- [11:255 -1:255 27 0] [0x2 4 1 [10 0] [0 4]] (REQUEST)
r 1.026572697 _7_ RTR  --- 0 AODV 48 [0 ffffffff b 800] ------- [11:255 -1:255 27 0] [0x2 4 1 [10 0] [0 4]] (REQUEST)
r 1.026572700 _3_ RTR  --- 0 AODV 48 [0 ffffffff b 800] ------- [11:255 -1:255 27 0] [0x2 4 1 [10 0] [0 4]] (REQUEST)
s 1.026982381 _5_ MAC  --- 0 ARP 86 [0 ffffffff 5 806] ------- [REQUEST 5/5 0/0]
r 1.027670761 _6_ MAC  --- 0 ARP 28 [0 ffffffff 5 806] ------- [REQUEST 5/5 0/0]
r 1.027670816 _0_ MAC  --- 0 ARP 28 [0 ffffffff 5 806] ------- [REQUEST 5/5 0/0]
r 1.027670967 _4_ MAC  --- 0 ARP 28 [0 ffffffff 5 806] ------- [REQUEST 5/5 0/0]
r 1.027671067 _7_ MAC  --- 0 ARP 28 [0 ffffffff 5 806] ------- [REQUEST 5/5 0/0]
r 1.027671081 _1_ MAC  --- 0 ARP 28 [0 ffffffff 5 806] ------- [REQUEST 5/5 0/0]
r 1.027671134 _9_ MAC  --- 0 ARP 28 [0 ffffffff 5 806] ------- [REQUEST 5/5 0/0]
s 1.027845816 _0_ MAC  --- 0 RTS 44 [52e 5 0 0] 
r 1.028198251 _5_ MAC  --- 0 RTS 44 [52e 5 0 0] 
s 1.028208251 _5_ MAC  --- 0 CTS 38 [3f4 0 0 0] 
r 1.028512686 _0_ MAC  --- 0 CTS 38 [3f4 0 0 0] 
s 1.028522686 _0_ MAC  --- 0 ARP 86 [13a 5 0 806] ------- [REPLY 0/0 5/5]
r 1.029211121 _5_ MAC  --- 0 ARP 28 [13a 5 0 806] ------- [REPLY 0/0 5/5]
s 1.029221121 _5_ MAC  --- 0 ACK 38 [0 0 0 0] 
r 1.029525556 _0_ MAC  --- 0 ACK 38 [0 0 0 0] 
s 1.029915121 _5_ MAC  --- 0 RTS 44 [5ae 0 5 0] 
r 1.030267556 _0_ MAC  --- 0 RTS 44 [5ae 0 5 0] 
s 1.030277556 _0_ MAC  --- 0 CTS 38 [474 5 0 0] 
r 1.030581991 _5_ MAC  --- 0 CTS 38 [474 5 0 0] 
s 1.030591991 _5_ MAC  --- 0 AODV 102 [13a 0 5 800] ------- [10:255 0:255 28 0] [0x4 3 [10 4] 10.000000] (REPLY)
r 1.031408426 _0_ MAC  --- 0 AODV 44 [13a 0 5 800] ------- [10:255 0:255 28 0] [0x4 3 [10 4] 10.000000] (REPLY)
s 1.031418426 _0_ MAC  --- 0 ACK 38 [0 5 0 0] 
r 1.031433426 _0_ RTR  --- 0 AODV 44 [13a 0 5 800] ------- [10:255 0:255 28 0] [0x4 3 [10 4] 10.000000] (REPLY)
s 1.031433426 _0_ RTR  --- 0 tcp 40 [0 0 0 0] ------- [0:0 10:0 30 5] [0 0] 0 0
r 1.031722861 _5_ MAC  --- 0 ACK 38 [0 5 0 0] 
s 1.031952426 _0_ MAC  --- 0 RTS 44 [58e 5 0 0] 
r 1.032304861 _5_ MAC  --- 0 RTS 44 [58e 5 0 0] 
s 1.032314861 _5_ MAC  --- 0 CTS 38 [454 0 0 0] 
r 1.032619296 _0_ MAC  --- 0 CTS 38 [454 0 0 0] 
s 1.032629296 _0_ MAC  --- 0 tcp 98 [13a 5 0 800] ------- [0:0 10:0 30 5] [0 0] 0 0
r 1.033413731 _5_ MAC  --- 0 tcp 40 [13a 5 0 800] ------- [0:0 10:0 30 5] [0 0] 1 0
s 1.033423731 _5_ MAC  --- 0 ACK 38 [0 0 0 0] 
r 1.033438731 _5_ RTR  --- 0 tcp 40 [13a 5 0 800] ------- [0:0 10:0 30 5] [0 0] 1 0
f 1.033438731 _5_ RTR  --- 0 tcp 40 [13a 5 0 800] ------- [0:0 10:0 29 9] [0 0] 1 0
r 1.033728166 _0_ MAC  --- 0 ACK 38 [0 0 0 0] 
s 1.033897731 _5_ MAC  --- 0 RTS 44 [58e 9 5 0] 
r 1.034250484 _9_ MAC  --- 0 RTS 44 [58e 9 5 0] 
s 1.034260484 _9_ MAC  --- 0 CTS 38 [454 5 0 0] 
r 1.034565237 _5_ MAC  --- 0 CTS 38 [454 5 0 0] 
s 1.034575237 _5_ MAC  --- 0 tcp 98 [13a 9 5 800] ------- [0:0 10:0 29 9] [0 0] 1 0
r 1.035359989 _9_ MAC  --- 0 tcp 40 [13a 9 5 800] ------- [0:0 10:0 29 9] [0 0] 2 0
s 1.035369989 _9_ MAC  --- 0 ACK 38 [0 5 0 0] 
r 1.035384989 _9_ RTR  --- 0 tcp 40 [13a 9 5 800] ------- [0:0 10:0 29 9] [0 0] 2 0
f 1.035384989 _9_ RTR  --- 0 tcp 40 [13a 9 5 800] ------- [0:0 10:0 28 10] [0 0] 2 0
r 1.035674742 _5_ MAC  --- 0 ACK 38 [0 5 0 0] 
s 1.036003989 _9_ MAC  --- 0 RTS 44 [58e a 9 0] 
r 1.036356473 _10_ MAC  --- 0 RTS 44 [58e a 9 0] 
s 1.036366473 _10_ MAC  --- 0 CTS 38 [454 9 0 0] 
r 1.036670957 _9_ MAC  --- 0 CTS 38 [454 9 0 0] 
s 1.036680957 _9_ MAC  --- 0 tcp 98 [13a a 9 800] ------- [0:0 10:0 28 10] [0 0] 2 0
r 1.037465440 _10_ MAC  --- 0 tcp 40 [13a a 9 800] ------- [0:0 10:0 28 10] [0 0] 3 0
s 1.037475440 _10_ MAC  --- 0 ACK 38 [0 9 0 0] 
r 1.037490440 _10_ AGT  --- 0 tcp 40 [13a a 9 800] ------- [0:0 10:0 28 10] [0 0] 3 0
s 1.037490440 _10_ AGT  --- 1 ack 40 [0 0 0 0] ------- [10:0 0:0 32 0] [0 0] 0 0
r 1.037490440 _10_ RTR  --- 1 ack 40 [0 0 0 0] ------- [10:0 0:0 32 0] [0 0] 0 0
s 1.037490440 _10_ RTR  --- 1 ack 40 [0 0 0 0] ------- [10:0 0:0 30 9] [0 0] 0 0
r 1.037779924 _9_ MAC  --- 0 ACK 38 [0 9 0 0] 
s 1.037829440 _10_ MAC  --- 0 RTS 44 [58e 9 a 0] 
r 1.038181924 _9_ MAC  --- 0 RTS 44 [58e 9 a 0] 
s 1.038191924 _9_ MAC  --- 0 CTS 38 [454 a 0 0] 
r 1.038496408 _10_ MAC  --- 0 CTS 38 [454 a 0 0] 
s 1.038506408 _10_ MAC  --- 1 ack 98 [13a 9 a 800] ------- [10:0 0:0 30 9] [0 0] 0 0
r 1.039290892 _9_ MAC  --- 1 ack 40 [13a 9 a 800] ------- [10:0 0:0 30 9] [0 0] 1 0
s 1.039300892 _9_ MAC  --- 0 ACK 38 [0 a 0 0] 
r 1.039315892 _9_ RTR  --- 1 ack 40 [13a 9 a 800] ------- [10:0 0:0 30 9] [0 0] 1 0
f 1.039315892 _9_ RTR  --- 1 ack 40 [13a 9 a 800] ------- [10:0 0:0 29 5] [0 0] 1 0
r 1.039605375 _10_ MAC  --- 0 ACK 38 [0 a 0 0] 
s 1.039874892 _9_ MAC  --- 0 RTS 44 [58e 5 9 0] 
r 1.040227644 _5_ MAC  --- 0 RTS 44 [58e 5 9 0] 
s 1.040237644 _5_ MAC  --- 0 CTS 38 [454 9 0 0] 
r 1.040542397 _9_ MAC  --- 0 CTS 38 [454 9 0 0] 
s 1.040552397 _9_ MAC  --- 1 ack 98 [13a 5 9 800] ------- [10:0 0:0 29 5] [0 0] 1 0
r 1.041337150 _5_ MAC  --- 1 ack 40 [13a 5 9 800] ------- [10:0 0:0 29 5] [0 0] 2 0
s 1.041347150 _5_ MAC  --- 0 ACK 38 [0 9 0 0] 
r 1.041362150 _5_ RTR  --- 1 ack 40 [13a 5 9 800] ------- [10:0 0:0 29 5] [0 0] 2 0
f 1.041362150 _5_ RTR  --- 1 ack 40 [13a 5 9 800] ------- [10:0 0:0 28 0] [0 0] 2 0
r 1.041651903 _9_ MAC  --- 0 ACK 38 [0 9 0 0] 
s 1.041761150 _5_ MAC  --- 0 RTS 44 [58e 0 5 0] 
r 1.042113585 _0_ MAC  --- 0 RTS 44 [58e 0 5 0] 
s 1.042123585 _0_ MAC  --- 0 CTS 38 [454 5 0 0] 
r 1.042428020 _5_ MAC  --- 0 CTS 38 [454 5 0 0] 
s 1.042438020 _5_ MAC  --- 1 ack 98 [13a 0 5 800] ------- [10:0 0:0 28 0] [0 0] 2 0
r 1.043222455 _0_ MAC  --- 1 ack 40 [13a 0 5 800] ------- [10:0 0:0 28 0] [0 0] 3 0
s 1.043232455 _0_ MAC  --- 0 ACK 38 [0 5 0 0] 
r 1.043247455 _0_ AGT  --- 1 ack 40 [13a 0 5 800] ------- [10:0 0:0 28 0] [0 0] 3 0
s 1.043247455 _0_ AGT  --- 2 tcp 1540 [0 0 0 0] ------- [0:0 10:0 32 0] [1 0] 0 0
r 1.043247455 _0_ RTR  --- 2 tcp 1540 [0 0 0 0] ------- [0:0 10:0 32 0] [1 0] 0 0
s 1.043247455 _0_ AGT  --- 3 tcp 1540 [0 0 0 0] ------- [0:0 10:0 32 0] [2 0] 0 0
r 1.043247455 _0_ RTR  --- 3 tcp 1540 [0 0 0 0] ------- [0:0 10:0 32 0] [2 0] 0 0
s 1.043247455 _0_ RTR  --- 2 tcp 1540 [0 0 0 0] ------- [0:0 10:0 30 5] [1 0] 0 0
s 1.043247455 _0_ RTR  --- 3 tcp 1540 [0 0 0 0] ------- [0:0 10:0 30 5] [2 0] 0 0
r 1.043536890 _5_ MAC  --- 0 ACK 38 [0 5 0 0] 
s 1.043666455 _0_ MAC  --- 0 RTS 44 [346e 5 0 0] 
r 1.044018890 _5_ MAC  --- 0 RTS 44 [346e 5 0 0] 
s 1.044028890 _5_ MAC  --- 0 CTS 38 [3334 0 0 0] 
r 1.044333325 _0_ MAC  --- 0 CTS 38 [3334 0 0 0] 
s 1.044343325 _0_ MAC  --- 2 tcp 1598 [13a 5 0 800] ------- [0:0 10:0 30 5] [1 0] 0 0
r 1.057127760 _5_ MAC  --- 2 tcp 1540 [13a 5 0 800] ------- [0:0 10:0 30 5] [1 0] 1 0
s 1.057137760 _5_ MAC  --- 0 ACK 38 [0 0 0 0] 
r 1.057152760 _5_ RTR  --- 2 tcp 1540 [13a 5 0 800] ------- [0:0 10:0 30 5] [1 0] 1 0
f 1.057152760 _5_ RTR  --- 2 tcp 1540 [13a 5 0 800] ------- [0:0 10:0 29 9] [1 0] 1 0
r 1.057442195 _0_ MAC  --- 0 ACK 38 [0 0 0 0] 
s 1.057572195 _0_ MAC  --- 0 RTS 44 [346e 5 0 0] 
r 1.057924630 _5_ MAC  --- 0 RTS 44 [346e 5 0 0] 
s 1.057934630 _5_ MAC  --- 0 CTS 38 [3334 0 0 0] 
r 1.058239065 _0_ MAC  --- 0 CTS 38 [3334 0 0 0] 
s 1.058249065 _0_ MAC  --- 3 tcp 1598 [13a 5 0 800] ------- [0:0 10:0 30 5] [2 0] 0 0
r 1.071033500 _5_ MAC  --- 3 tcp 1540 [13a 5 0 800] ------- [0:0 10:0 30 5] [2 0] 1 0
s 1.071043500 _5_ MAC  --- 0 ACK 38 [0 0 0 0] 
r 1.071058500 _5_ RTR  --- 3 tcp 1540 [13a 5 0 800] ------- [0:0 10:0 30 5] [2 0] 1 0
f 1.071058500 _5_ RTR  --- 3 tcp 1540 [13a 5 0 800] ------- [0:0 10:0 29 9] [2 0] 1 0
r 1.071347935 _0_ MAC  --- 0 ACK 38 [0 0 0 0] 
s 1.071477500 _5_ MAC  --- 0 RTS 44 [346e 9 5 0] 
r 1.071830253 _9_ MAC  --- 0 RTS 44 [346e 9 5 0] 
s 1.071840253 _9_ MAC  --- 0 CTS 38 [3334 5 0 0] 
r 1.072145006 _5_ MAC  --- 0 CTS 38 [3334 5 0 0] 
s 1.072155006 _5_ MAC  --- 2 tcp 1598 [13a 9 5 800] ------- [0:0 10:0 29 9] [1 0] 1 0
r 1.084939759 _9_ MAC  --- 2 tcp 1540 [13a 9 5 800] ------- [0:0 10:0 29 9] [1 0] 2 0
s 1.084949759 _9_ MAC  --- 0 ACK 38 [0 5 0 0] 
r 1.084964759 _9_ RTR  --- 2 tcp 1540 [13a 9 5 800] ------- [0:0 10:0 29 9] [1 0] 2 0
f 1.084964759 _9_ RTR  --- 2 tcp 1540 [13a 9 5 800] ------- [0:0 10:0 28 10] [1 0] 2 0
r 1.085254512 _5_ MAC  --- 0 ACK 38 [0 5 0 0] 
s 1.085304512 _5_ MAC  --- 0 RTS 44 [346e 9 5 0] 
r 1.085657264 _9_ MAC  --- 0 RTS 44 [346e 9 5 0] 
s 1.085667264 _9_ MAC  --- 0 CTS 38 [3334 5 0 0] 
r 1.085972017 _5_ MAC  --- 0 CTS 38 [3334 5 0 0] 
s 1.085982017 _5_ MAC  --- 3 tcp 1598 [13a 9 5 800] ------- [0:0 10:0 29 9] [2 0] 1 0
r 1.098766770 _9_ MAC  --- 3 tcp 1540 [13a 9 5 800] ------- [0:0 10:0 29 9] [2 0] 2 0
s 1.098776770 _9_ MAC  --- 0 ACK 38 [0 5 0 0] 
r 1.098791770 _9_ RTR  --- 3 tcp 1540 [13a 9 5 800] ------- [0:0 10:0 29 9] [2 0] 2 0
f 1.098791770 _9_ RTR  --- 3 tcp 1540 [13a 9 5 800] ------- [0:0 10:0 28 10] [2 0] 2 0
r 1.099081523 _5_ MAC  --- 0 ACK 38 [0 5 0 0] 
s 1.099210770 _9_ MAC  --- 0 RTS 44 [346e a 9 0] 
r 1.099563254 _10_ MAC  --- 0 RTS 44 [346e a 9 0] 
s 1.099573254 _10_ MAC  --- 0 CTS 38 [3334 9 0 0] 
r 1.099877737 _9_ MAC  --- 0 CTS 38 [3334 9 0 0] 
s 1.099887737 _9_ MAC  --- 2 tcp 1598 [13a a 9 800] ------- [0:0 10:0 28 10] [1 0] 2 0
r 1.112672221 _10_ MAC  --- 2 tcp 1540 [13a a 9 800] ------- [0:0 10:0 28 10] [1 0] 3 0
s 1.112682221 _10_ MAC  --- 0 ACK 38 [0 9 0 0] 
r 1.112697221 _10_ AGT  --- 2 tcp 1540 [13a a 9 800] ------- [0:0 10:0 28 10] [1 0] 3 0
s 1.112697221 _10_ AGT  --- 4 ack 40 [0 0 0 0] ------- [10:0 0:0 32 0] [1 0] 0 0
r 1.112697221 _10_ RTR  --- 4 ack 40 [0 0 0 0] ------- [10:0 0:0 32 0] [1 0] 0 0
s 1.112697221 _10_ RTR  --- 4 ack 40 [0 0 0 0] ------- [10:0 0:0 30 9] [1 0] 0 0
r 1.112986705 _9_ MAC  --- 0 ACK 38 [0 9 0 0] 
s 1.113136221 _10_ MAC  --- 0 RTS 44 [58e 9 a 0] 
r 1.113488705 _9_ MAC  --- 0 RTS 44 [58e 9 a 0] 
s 1.113498705 _9_ MAC  --- 0 CTS 38 [454 a 0 0] 
r 1.113803189 _10_ MAC  --- 0 CTS 38 [454 a 0 0] 